Generated by ZY code

78 atoms
11 atom types
82 bonds
16 bond types
142 angles
33 angle types
200 dihedrals
45 dihedral types
48 impropers
19 improper types

-13.6650700000000001 36.3349299999999999 xlo xhi
-5.4405000000000001 44.5594999999999999 ylo yhi
-3.9091300000000002 46.0908700000000024 zlo zhi

Masses

1 12.011 # C
10 15.999 # O
11 15.999 # O
2 12.011 # C
3 12.011 # C
4 1.008 # H
5 1.008 # H
6 1.008 # H
7 1.008 # H
8 14.007 # N
9 15.999 # O

Pair Coeffs

1 0.070000 3.550000
2 0.066000 3.500000
3 0.083000 3.450000
4 0.000000 0.000000
5 0.030000 2.420000
6 0.030000 2.500000
7 0.000000 0.000000
8 0.170000 3.300000
9 0.140000 2.900000
10 0.170000 3.120000
11 0.140000 2.900000

Bond Coeffs

1 469.000000 1.400000
2 317.000000 1.510000
3 367.000000 1.080000
4 481.000000 1.340000
5 450.000000 1.364000
6 268.000000 1.529000
7 280.000000 1.510000
8 340.000000 1.090000
9 382.000000 1.448000
10 320.000000 1.410000
11 320.000000 1.410000
12 260.000000 1.520000
13 340.000000 1.088000
14 320.000000 1.410000
15 434.000000 1.010000
16 553.000000 0.945000

Angle Coeffs

1 63.000000 120.000000
2 70.000000 120.000000
3 35.000000 120.000000
4 70.000000 120.000000
5 70.000000 120.000000
6 40.000000 109.500000
7 63.000000 114.000000
8 35.000000 109.500000
9 50.000000 116.000000
10 35.000000 116.000000
11 75.000000 111.000000
12 58.350000 112.700000
13 37.500000 110.700000
14 56.200000 109.470000
15 50.000000 109.500000
16 50.000000 109.500000
17 37.500000 117.200000
18 35.000000 114.300000
19 37.500000 117.200000
20 35.000000 109.500000
21 55.000000 108.500000
22 37.500000 110.700000
23 50.000000 109.500000
24 37.500000 117.200000
25 50.000000 90.000000
26 60.000000 90.000000
27 43.600000 106.400000
28 33.000000 107.800000
29 35.000000 109.500000
30 35.000000 109.500000
31 35.000000 109.500000
32 35.000000 114.300000
33 37.500000 117.200000

Dihedral Coeffs

1 0.000000 7.250000 0.000000 0.000000
2 0.000000 7.250000 0.000000 0.000000
3 0.000000 7.250000 0.000000 0.000000
4 0.000000 7.250000 0.000000 0.000000
5 0.000000 7.250000 0.000000 0.000000
6 0.000000 0.000000 0.000000 0.000000
7 0.000000 0.000000 0.000000 0.000000
8 0.000000 0.000000 0.000000 0.000000
9 -7.582000 3.431000 3.198000 0.000000
10 0.000000 2.030000 0.000000 0.000000
11 0.000000 3.000000 0.000000 0.000000
12 0.000000 0.000000 0.000000 0.000000
13 0.000000 0.000000 0.462000 0.000000
14 0.416000 -0.128000 0.695000 0.000000
15 0.000000 0.000000 0.560000 0.000000
16 0.650000 -0.250000 0.670000 0.000000
17 0.650000 -0.250000 0.670000 0.000000
18 0.000000 0.000000 0.760000 0.000000
19 0.000000 7.250000 0.000000 0.000000
20 0.000000 0.000000 0.300000 0.000000
21 2.392000 -0.674000 0.550000 0.000000
22 1.711000 -0.500000 0.663000 0.000000
23 -0.190000 -0.417000 0.418000 0.000000
24 -0.356000 -0.174000 0.492000 0.000000
25 0.000000 0.000000 0.000000 0.000000
26 0.000000 0.000000 0.300000 0.000000
27 0.000000 0.000000 0.000000 0.000000
28 0.000000 0.000000 0.000000 0.000000
29 0.000000 0.000000 0.400000 0.000000
30 0.000000 7.250000 0.000000 0.000000
31 0.000000 7.250000 0.000000 0.000000
32 0.000000 7.250000 0.000000 0.000000
33 0.000000 0.000000 0.300000 0.000000
34 -1.013000 -0.709000 0.473000 0.000000
35 0.000000 0.000000 0.468000 0.000000
36 0.000000 0.000000 0.468000 0.000000
37 0.000000 0.000000 0.468000 0.000000
38 0.000000 0.000000 0.352000 0.000000
39 0.000000 0.000000 0.300000 0.000000
40 0.000000 0.000000 0.468000 0.000000
41 0.000000 0.000000 0.000000 0.000000
42 0.000000 0.000000 0.000000 0.000000
43 8.000000 0.000000 0.000000 0.000000
44 -0.550000 0.000000 0.000000 0.000000
45 4.319000 0.000000 0.000000 0.000000

Improper Coeffs

1 2.500000 -1 2
2 2.500000 -1 2
3 2.500000 -1 2
4 2.500000 -1 2
5 0.000000 -1 2
6 0.000000 -1 2
7 0.000000 -1 2
8 0.000000 -1 2
9 0.000000 -1 2
10 0.000000 -1 2
11 0.000000 -1 2
12 0.000000 -1 2
13 0.000000 -1 2
14 0.000000 -1 2
15 0.000000 -1 2
16 0.000000 -1 2
17 0.000000 -1 2
18 0.000000 -1 2
19 0.000000 -1 2

Atoms # full

1 1 7 0.435800 1.000000 1.000000 0.000000
2 1 10 -0.579600 0.019000 1.000000 0.000000
3 1 2 0.064000 -0.337000 1.000000 1.394510
4 1 2 0.009000 0.742000 0.220010 2.173450
5 1 2 0.005300 -1.695000 0.310310 1.577120
6 1 6 0.110900 -0.373000 2.047320 1.713410
7 1 8 -0.814300 2.077000 0.628280 1.702050
8 1 6 0.103000 0.571000 -0.845340 1.980610
9 1 6 0.103000 0.647000 0.390970 3.252350
10 1 1 0.144400 3.017000 -0.389250 1.470310
11 1 4 0.418000 2.493000 1.346490 2.297020
12 1 1 -0.168600 4.035000 -0.149140 0.542610
13 1 1 -0.168600 3.038000 -1.599780 2.165820
14 1 5 0.152500 4.079000 0.806790 0.026390
15 1 1 -0.127900 4.961000 -1.146410 0.205520
16 1 5 0.152500 2.335000 -1.800210 2.967700
17 1 1 -0.127900 3.935000 -2.611460 1.809570
18 1 5 0.156400 5.705000 -0.919100 -0.553960
19 1 1 -0.080300 4.921000 -2.396350 0.831600
20 1 5 0.156400 3.855000 -3.577510 2.305480
21 1 2 -0.083400 5.814000 -3.565760 0.476000
22 1 1 -0.127000 7.003000 -3.328400 -0.424680
23 1 6 0.104000 5.187000 -4.330550 -0.003430
24 1 6 0.104000 6.173000 -4.016160 1.411580
25 1 1 -0.100900 8.300000 -3.312970 0.104500
26 1 1 -0.100900 6.840000 -3.174380 -1.807930
27 1 5 0.151600 8.458000 -3.413040 1.175740
28 1 1 -0.205600 9.407000 -3.170350 -0.737770
29 1 5 0.151600 5.844000 -3.165650 -2.244200
30 1 1 -0.205600 7.953000 -3.028850 -2.642880
31 1 5 0.149000 10.402000 -3.160400 -0.300460
32 1 1 0.200500 9.243000 -3.043950 -2.117890
33 1 5 0.149000 7.797000 -2.904480 -3.711040
34 1 8 -0.951700 10.334000 -2.713010 -2.931170
35 1 4 0.418600 11.220000 -3.061050 -2.577070
36 1 4 0.418600 10.194000 -2.948560 -3.909130
37 1 11 -0.291900 -2.738000 1.097450 0.993680
38 1 6 0.097300 -1.653000 -0.671190 1.085720
39 1 6 0.097300 -1.899000 0.191350 2.647110
40 1 1 0.132800 -3.925000 0.442640 0.801180
41 1 1 -0.204700 -4.793000 1.031600 -0.116440
42 1 1 -0.204700 -4.313000 -0.732930 1.440410
43 1 5 0.158900 -4.497000 1.950180 -0.618310
44 1 1 -0.105900 -6.038000 0.454560 -0.399820
45 1 5 0.158900 -3.674000 -1.228660 2.163230
46 1 1 -0.105900 -5.556000 -1.308720 1.160890
47 1 5 0.153700 -6.670000 0.958670 -1.124840
48 1 1 -0.109000 -6.444000 -0.731230 0.232150
49 1 5 0.153700 -5.828000 -2.224660 1.683970
50 1 2 0.055000 -7.804000 -1.414240 -0.049870
51 1 2 -0.229900 -7.490000 -2.641620 -0.943060
52 1 2 -0.229800 -8.787000 -0.527510 -0.857410
53 1 1 -0.102100 -8.530000 -1.776830 1.270410
54 1 6 0.086600 -8.405000 -3.152130 -1.266140
55 1 6 0.086600 -6.864000 -3.379260 -0.425690
56 1 6 0.086600 -6.953000 -2.342320 -1.851100
57 1 6 0.086800 -9.752000 -1.031910 -0.993930
58 1 6 0.086800 -8.400000 -0.303750 -1.859580
59 1 6 0.086800 -8.988000 0.427490 -0.357750
60 1 1 -0.106400 -9.006000 -3.066560 1.552680
61 1 1 -0.106400 -8.730000 -0.781820 2.247700
62 1 5 0.156000 -8.884000 -3.881210 0.843290
63 1 1 -0.203800 -9.656000 -3.354340 2.761540
64 1 5 0.156000 -8.377000 0.234370 2.075670
65 1 1 -0.203800 -9.377000 -1.069130 3.451020
66 1 5 0.158600 -10.001000 -4.370000 2.922310
67 1 1 0.127000 -9.843000 -2.355050 3.713820
68 1 5 0.158600 -9.518000 -0.280120 4.186060
69 1 11 -0.304900 -10.414000 -2.521400 4.944000
70 1 2 0.014300 -11.281000 -3.645620 5.096030
71 1 3 -0.042000 -11.938000 -3.552930 6.437190
72 1 6 0.105700 -10.712000 -4.579160 5.021760
73 1 6 0.105700 -12.057000 -3.620230 4.321740
74 1 6 0.168800 -12.096000 -2.539450 6.781220
75 1 9 -0.337100 -11.525000 -4.546690 7.385700
76 1 3 -0.082500 -12.880000 -4.627320 6.912100
77 1 6 0.138100 -13.130000 -5.440500 6.242930
78 1 6 0.138100 -13.665000 -4.350890 7.606100

Bonds

1 16 2 1
2 10 3 2
3 6 4 3
4 6 5 3
5 8 6 3
6 9 7 4
7 8 8 4
8 8 9 4
9 4 10 7
10 15 11 7
11 1 12 10
12 1 13 10
13 3 14 12
14 1 15 12
15 3 16 13
16 1 17 13
17 3 18 15
18 1 19 15
19 3 20 17
20 2 21 19
21 2 22 21
22 8 23 21
23 8 24 21
24 1 25 22
25 1 26 22
26 3 27 25
27 1 28 25
28 3 29 26
29 1 30 26
30 3 31 28
31 1 32 28
32 3 33 30
33 4 34 32
34 15 35 34
35 15 36 34
36 11 37 5
37 8 38 5
38 8 39 5
39 5 40 37
40 1 41 40
41 1 42 40
42 3 43 41
43 1 44 41
44 3 45 42
45 1 46 42
46 3 47 44
47 1 48 44
48 3 49 46
49 2 50 48
50 6 51 50
51 6 52 50
52 2 53 50
53 8 54 51
54 8 55 51
55 8 56 51
56 8 57 52
57 8 58 52
58 8 59 52
59 1 60 53
60 1 61 53
61 3 62 60
62 1 63 60
63 3 64 61
64 1 65 61
65 3 66 63
66 1 67 63
67 3 68 65
68 5 69 67
69 11 70 69
70 7 71 70
71 8 72 70
72 8 73 70
73 13 74 71
74 14 75 71
75 12 76 71
76 13 77 76
77 13 78 76
78 1 19 17
79 1 32 30
80 1 48 46
81 1 67 65
82 14 76 75

Angles

1 21 1 2 3
2 15 2 3 4
3 15 2 3 5
4 30 2 3 6
5 14 3 4 7
6 13 3 4 8
7 13 3 4 9
8 9 4 7 10
9 20 4 7 11
10 4 7 10 12
11 4 7 10 13
12 3 10 12 14
13 1 10 12 15
14 3 10 13 16
15 1 10 13 17
16 3 12 15 18
17 1 12 15 19
18 3 13 17 20
19 2 15 19 21
20 6 19 21 22
21 8 19 21 23
22 8 19 21 24
23 2 21 22 25
24 2 21 22 26
25 3 22 25 27
26 1 22 25 28
27 3 22 26 29
28 1 22 26 30
29 3 25 28 31
30 1 25 28 32
31 3 26 30 33
32 4 28 32 34
33 10 32 34 35
34 10 32 34 36
35 16 3 5 37
36 13 3 5 38
37 13 3 5 39
38 11 5 37 40
39 5 37 40 41
40 5 37 40 42
41 3 40 41 43
42 1 40 41 44
43 3 40 42 45
44 1 40 42 46
45 3 41 44 47
46 1 41 44 48
47 3 42 46 49
48 2 44 48 50
49 7 48 50 51
50 7 48 50 52
51 6 48 50 53
52 13 50 51 54
53 13 50 51 55
54 13 50 51 56
55 13 50 52 57
56 13 50 52 58
57 13 50 52 59
58 2 50 53 60
59 2 50 53 61
60 3 53 60 62
61 1 53 60 63
62 3 53 61 64
63 1 53 61 65
64 3 60 63 66
65 1 60 63 67
66 3 61 65 68
67 5 63 67 69
68 11 67 69 70
69 23 69 70 71
70 31 69 70 72
71 31 69 70 73
72 18 70 71 74
73 19 70 71 75
74 17 70 71 76
75 24 71 76 77
76 24 71 76 78
77 1 61 65 67
78 31 37 5 39
79 22 71 70 73
80 4 30 32 34
81 7 51 50 53
82 28 72 70 73
83 3 29 26 30
84 29 7 4 8
85 25 71 76 75
86 24 74 71 76
87 1 26 30 32
88 32 77 76 78
89 28 8 4 9
90 28 57 52 58
91 28 38 5 39
92 22 71 70 72
93 1 28 32 30
94 2 17 19 21
95 12 51 50 52
96 1 44 48 46
97 3 18 15 19
98 28 55 51 56
99 8 22 21 23
100 2 46 48 50
101 3 31 28 32
102 33 74 71 75
103 3 47 44 48
104 12 4 3 5
105 28 58 52 59
106 7 52 50 53
107 1 13 17 19
108 13 5 3 6
109 27 35 34 36
110 28 54 51 56
111 8 22 21 24
112 3 48 46 49
113 29 7 4 9
114 3 14 12 15
115 3 43 41 44
116 26 71 75 76
117 33 75 76 78
118 1 41 40 42
119 25 75 71 76
120 28 23 21 24
121 3 64 61 65
122 28 54 51 55
123 1 63 67 65
124 1 25 22 26
125 3 32 30 33
126 33 75 76 77
127 3 66 63 67
128 1 15 19 17
129 28 57 52 59
130 3 19 17 20
131 1 42 46 48
132 1 12 10 13
133 3 45 42 46
134 1 60 53 61
135 3 62 60 63
136 3 27 25 28
137 31 37 5 38
138 13 4 3 6
139 10 10 7 11
140 3 16 13 17
141 3 67 65 68
142 5 65 67 69

Dihedrals

1 24 4 3 2 1
2 43 7 4 3 2
3 14 10 7 4 3
4 9 12 10 7 4
5 31 14 12 10 7
6 31 16 13 10 7
7 3 18 15 12 10
8 12 22 21 19 15
9 6 25 22 21 19
10 19 27 25 22 21
11 19 29 26 22 21
12 3 31 28 25 22
13 10 35 34 32 28
14 45 37 5 3 2
15 16 40 37 5 3
16 11 41 40 37 5
17 32 43 41 40 37
18 32 45 42 40 37
19 3 47 44 41 40
20 7 51 50 48 44
21 13 54 51 50 48
22 13 57 52 50 48
23 6 60 53 50 48
24 19 62 60 53 50
25 19 64 61 53 50
26 3 66 63 60 53
27 11 70 69 67 63
28 17 71 70 69 67
29 40 74 71 70 69
30 42 77 76 71 75
31 42 78 76 71 75
32 1 15 19 17 13
33 3 16 13 10 12
34 3 47 44 48 46
35 3 31 28 32 30
36 35 38 5 3 2
37 30 66 63 60 62
38 3 68 65 67 63
39 18 40 37 5 39
40 6 61 53 50 48
41 3 67 65 61 64
42 20 56 51 50 52
43 13 57 52 50 53
44 3 43 41 40 42
45 2 50 48 46 42
46 1 48 44 41 40
47 30 49 46 42 45
48 13 56 51 50 53
49 37 75 71 70 73
50 26 76 71 70 72
51 2 28 25 22 21
52 1 48 46 42 40
53 3 66 63 67 65
54 33 38 5 3 6
55 12 53 50 48 44
56 7 61 53 50 52
57 3 14 12 10 13
58 35 39 5 3 2
59 3 49 46 48 44
60 3 49 46 42 40
61 7 51 50 48 46
62 18 40 37 5 38
63 12 22 21 19 17
64 8 24 21 19 15
65 11 70 69 67 65
66 8 24 21 19 17
67 44 75 71 70 69
68 4 34 32 28 25
69 20 58 52 50 51
70 3 27 25 22 26
71 19 21 19 17 20
72 3 62 60 53 61
73 1 30 32 28 25
74 4 34 32 30 26
75 13 59 52 50 48
76 1 65 61 53 60
77 9 13 10 7 4
78 2 21 19 15 12
79 2 50 48 44 41
80 20 55 51 50 52
81 10 12 10 7 11
82 13 54 51 50 53
83 13 56 51 50 48
84 3 33 30 26 22
85 5 44 41 40 37
86 2 63 60 53 50
87 36 37 5 3 6
88 20 39 5 3 4
89 1 46 48 44 41
90 30 33 30 26 29
91 12 53 50 48 46
92 8 25 22 21 23
93 2 30 26 22 21
94 18 73 70 69 67
95 30 47 44 41 43
96 3 20 17 13 10
97 41 78 76 71 74
98 3 19 17 13 16
99 20 57 52 50 51
100 31 34 32 28 31
101 3 48 44 41 43
102 1 63 67 65 61
103 1 65 67 63 60
104 15 10 7 4 8
105 1 44 41 40 42
106 1 28 25 22 26
107 30 18 15 12 14
108 28 78 76 75 71
109 31 34 32 30 33
110 7 52 50 48 44
111 19 50 48 44 47
112 13 58 52 50 53
113 33 39 5 3 6
114 1 17 19 15 12
115 20 59 52 50 51
116 7 61 53 50 51
117 7 60 53 50 52
118 21 7 4 3 5
119 29 11 7 4 9
120 35 8 4 3 2
121 3 48 46 42 45
122 3 18 15 19 17
123 3 32 30 26 29
124 13 55 51 50 53
125 1 32 30 26 22
126 30 68 65 61 64
127 26 76 71 70 73
128 3 33 30 32 28
129 2 21 19 17 13
130 7 52 50 48 46
131 33 9 4 3 6
132 10 35 34 32 30
133 1 28 32 30 26
134 23 11 7 4 3
135 2 65 61 53 50
136 37 75 71 70 72
137 10 36 34 32 28
138 11 42 40 37 5
139 29 11 7 4 8
140 1 32 28 25 22
141 1 17 13 10 12
142 20 38 5 3 4
143 19 50 48 46 49
144 8 23 21 19 17
145 10 13 10 7 11
146 3 45 42 40 41
147 41 77 76 71 74
148 4 15 12 10 7
149 35 9 4 3 2
150 5 69 67 63 60
151 3 29 26 22 25
152 30 31 28 25 27
153 5 69 67 65 61
154 20 9 4 3 5
155 3 64 61 53 60
156 13 58 52 50 48
157 33 8 4 3 6
158 1 30 26 22 25
159 6 26 22 21 19
160 39 74 71 70 73
161 24 5 3 2 1
162 1 63 60 53 61
163 8 23 21 19 15
164 32 69 67 63 66
165 3 19 15 12 14
166 1 67 63 60 53
167 13 55 51 50 48
168 1 19 17 13 10
169 28 77 76 75 71
170 5 46 42 40 37
171 8 26 22 21 24
172 1 15 12 10 13
173 18 72 70 69 67
174 32 69 67 65 68
175 3 32 28 25 27
176 39 74 71 70 72
177 1 19 15 12 10
178 1 46 42 40 41
179 7 60 53 50 51
180 13 59 52 50 53
181 34 7 4 3 6
182 20 8 4 3 5
183 10 36 34 32 30
184 3 20 17 19 15
185 38 6 3 2 1
186 8 25 22 21 24
187 8 26 22 21 23
188 3 68 65 61 53
189 3 67 63 60 62
190 1 44 48 46 42
191 15 10 7 4 9
192 4 17 13 10 7
193 25 78 76 71 70
194 27 76 71 70 69
195 19 21 19 15 18
196 30 20 17 13 16
197 22 37 5 3 4
198 25 77 76 71 70
199 20 54 51 50 52
200 1 67 65 61 53

Impropers

1 8 3 2 4 5
2 11 3 2 4 6
3 10 4 3 7 8
4 10 4 9 3 7
5 18 7 10 11 4
6 3 10 12 13 7
7 2 12 10 14 15
8 2 13 17 10 16
9 2 15 18 19 12
10 2 17 19 20 13
11 1 19 17 21 15
12 6 21 19 22 23
13 6 21 19 22 24
14 1 22 25 26 21
15 2 25 27 28 22
16 2 26 29 30 22
17 2 28 25 31 32
18 2 30 33 26 32
19 3 32 34 28 30
20 19 34 35 36 32
21 12 5 37 3 38
22 12 5 37 3 39
23 4 40 41 42 37
24 2 41 43 44 40
25 2 42 45 46 40
26 2 44 41 47 48
27 2 46 49 42 48
28 1 48 50 44 46
29 7 50 51 52 48
30 5 50 51 53 48
31 9 51 50 54 55
32 9 51 50 54 56
33 9 52 57 58 50
34 9 52 57 50 59
35 1 53 60 61 50
36 2 60 53 62 63
37 2 61 65 53 64
38 2 63 66 67 60
39 2 65 67 68 61
40 4 67 65 69 63
41 13 70 69 71 72
42 13 70 73 69 71
43 16 71 74 75 70
44 14 71 74 76 70
45 17 71 75 76 74
46 15 71 75 76 70
47 15 71 75 76 70
48 17 71 75 76 74

