29
 Atoms. Timestep: 0
1 1 1 0
1 -0.388 1 0
1 -1.055 1 1.21492
1 -0.359 1 2.42936
1 1.038 1 2.41825
1 1.708 1 1.20677
2 3.126 0.9177 1.10466
1 4.421 0.76281 0.53757
1 5.47 1.6173 0.85458
1 6.6 1.63574 0.0409
1 6.67 0.8009 -1.0791
1 5.64 -0.08907 -1.35993
1 4.508 -0.09334 -0.56182
8 7.77 0.89642 -1.97011
8 -2.47 0.99843 1.21492
5 1.512 1.00113 -0.89584
5 -0.913 0.99888 -0.88898
5 -0.873 0.99887 3.32373
5 1.565 1.00113 3.30448
6 3.239 0.14673 1.83906
6 3.098 1.88552 0.65071
5 5.411 2.22915 1.68304
5 7.385 2.26642 0.26434
5 5.719 -0.74222 -2.15604
5 3.726 -0.72927 -0.77958
4 8.503 1.52401 -1.77984
4 7.798 0.3333 -2.77692
4 -2.961 0.99737 0.36176
4 47.038 0.99733 2.06752
29
 Atoms. Timestep: 1000
1 18.1315 20.9973 21.8565
1 16.8388 21.1927 21.4496
1 16.3336 20.459 20.3648
1 17.1556 19.4244 19.8098
1 18.4879 19.2366 20.2626
1 18.9837 20.0446 21.2852
2 20.4266 20.0905 21.5301
1 21.4073 20.016 20.4229
1 21.2858 20.5592 19.1095
1 22.2569 20.3229 18.1245
1 23.3498 19.5157 18.4246
1 23.5717 19.1006 19.7348
1 22.6282 19.3691 20.7346
8 24.1772 19.0365 17.4101
8 15.0766 20.6953 19.9608
5 18.5352 21.7192 22.5922
5 16.2839 21.9377 21.9581
5 16.7407 18.7572 19.0486
5 19.1079 18.479 19.7602
6 20.5455 19.1545 22.1155
6 20.6774 20.9761 22.1644
5 20.5001 21.2983 18.8674
5 22.1517 20.7403 17.0927
5 24.4265 18.5204 20.0462
5 22.7432 19.0247 21.8145
4 24.2866 19.51 16.5092
4 25.0709 18.5828 17.6057
4 14.4114 21.0672 20.5784
4 14.6707 20.0434 19.3299
29
 Atoms. Timestep: 2000
1 18.4437 21.1645 20.2847
1 17.056 21.183 19.9249
1 16.174 20.2046 20.4734
1 16.7754 19.2101 21.3127
1 18.162 19.1065 21.5864
1 18.9587 20.0863 21.0363
2 20.3865 20.1406 21.4219
1 21.357 19.9616 20.2707
1 22.045 21.1019 19.7795
1 23.2129 20.9952 19.0084
1 23.5394 19.7491 18.4711
1 22.8169 18.6134 18.8518
1 21.7513 18.6851 19.8352
8 24.5619 19.5849 17.6724
8 14.84 20.2361 20.3792
5 19.031 22.0049 19.8781
5 16.6529 21.9608 19.2918
5 16.0964 18.5042 21.771
5 18.5593 18.3751 22.2505
6 20.5546 19.373 22.1685
6 20.6032 21.0823 21.891
5 21.754 22.0848 20.0956
5 23.7459 21.8744 18.694
5 23.1407 17.6471 18.5074
5 21.3408 17.8235 20.2608
4 25.2354 20.306 17.6004
4 24.9193 18.6771 17.508
4 14.4373 20.8033 19.6846
4 14.1536 19.5616 20.5803
29
 Atoms. Timestep: 3000
1 17.7791 21.6478 21.0137
1 16.5767 20.8722 21.3277
1 16.523 19.4962 20.9643
1 17.6465 18.8779 20.4158
1 18.7983 19.5998 20.1358
1 18.8845 21.0272 20.3439
2 20.1291 21.9492 20.1496
1 21.3423 21.0312 19.7847
1 22.104 20.2249 20.6424
1 22.9813 19.2029 20.3016
1 23.3113 19.0686 18.9501
1 22.6825 19.9044 17.9995
1 21.6848 20.8211 18.424
8 24.2244 18.1559 18.5664
8 15.4262 18.7227 21.1009
5 17.8553 22.6886 21.096
5 15.6771 21.4006 21.7024
5 17.5459 17.8287 20.1202
5 19.6337 19.035 19.7523
6 20.1568 22.54 21.0209
6 19.9252 22.5239 19.2636
5 21.9403 20.3338 21.7486
5 23.3509 18.4575 20.9901
5 22.8055 19.7391 16.9547
5 21.1272 21.4264 17.6475
4 24.8647 17.7527 19.2376
4 24.767 18.5087 17.7951
4 14.4771 19.0416 20.9649
4 15.4479 17.7303 20.9299
29
 Atoms. Timestep: 4000
1 17.682 21.6359 20.6167
1 16.4452 20.9765 20.8994
1 16.343 19.5876 21.1136
1 17.5014 18.7912 20.9175
1 18.6998 19.4286 20.6282
1 18.8154 20.8211 20.4073
2 20.1246 21.5389 20.0344
1 21.2448 20.6105 19.5815
1 21.853 19.8036 20.5565
1 23.0633 19.1929 20.2077
1 23.6188 19.3462 18.8977
1 22.8715 20.0491 17.9361
1 21.7168 20.6898 18.2405
8 24.8186 18.7778 18.6301
8 15.1561 19.0706 21.3185
5 17.6769 22.749 20.5393
5 15.6264 21.6433 20.941
5 17.5545 17.7175 20.8903
5 19.5675 18.7905 20.4922
6 20.5179 22.1072 20.8917
6 19.8851 22.2648 19.2632
5 21.5227 19.7485 21.5366
5 23.6716 18.6849 20.9338
5 23.293 20.2328 16.9733
5 21.2916 21.2353 17.4319
4 25.3576 18.0829 19.16
4 25.0936 18.7842 17.6406
4 14.4912 19.8765 21.375
4 15.0454 18.525 22.2019
29
 Atoms. Timestep: 5000
1 18.5983 20.8489 19.9995
1 17.2011 20.9099 19.7576
1 16.2653 20.2317 20.5174
1 16.7538 19.2789 21.4411
1 18.1196 19.1909 21.7066
1 19.0349 20.0818 21.1335
2 20.4543 20.1624 21.5941
1 21.4526 20.0387 20.4256
1 22.0335 21.1461 19.8282
1 22.8734 20.9775 18.7366
1 23.3291 19.676 18.43
1 22.9154 18.5512 19.114
1 22.0348 18.785 20.166
8 24.1753 19.6298 17.3868
8 14.9434 20.3888 20.2037
5 19.272 21.3919 19.4068
5 16.8227 21.5949 18.955
5 16.0719 18.659 21.9745
5 18.4442 18.5513 22.536
6 20.6969 19.4953 22.3965
6 20.6128 21.1236 22.0935
5 21.6841 22.1613 20.1015
5 23.3497 21.8639 18.3079
5 23.3463 17.5556 18.8376
5 21.6621 17.9851 20.7892
4 24.2797 20.4553 16.7851
4 24.2718 18.7765 16.8283
4 14.7347 21.1297 19.4706
4 14.293 20.4416 21.038
29
 Atoms. Timestep: 6000
1 18.7472 21.0235 20.2537
1 17.4789 20.8881 19.7023
1 16.483 20.1534 20.3362
1 16.8155 19.4651 21.5288
1 18.1781 19.3775 21.9581
1 19.1161 20.2481 21.348
2 20.6255 20.2188 21.7709
1 21.5427 20.0269 20.6411
1 22.057 21.1686 19.9751
1 22.7638 20.9869 18.8027
1 23.0568 19.7057 18.3012
1 22.5037 18.5632 18.9291
1 21.7609 18.7605 20.0817
8 23.7591 19.5391 17.1678
8 15.2771 19.9651 19.7981
5 19.4474 21.6205 19.7569
5 17.3102 21.3923 18.788
5 16.0942 18.8452 22.0511
5 18.5592 18.714 22.7303
6 20.8127 19.4515 22.525
6 20.8552 21.1656 22.2126
5 21.9661 22.21 20.2637
5 23.2018 21.8682 18.3906
5 22.7832 17.5841 18.5658
5 21.5048 17.8769 20.6715
4 23.8652 20.4033 16.6195
4 24.2244 18.7274 16.7928
4 14.7457 20.6702 19.3565
4 14.565 19.3728 20.196
29
 Atoms. Timestep: 7000
1 18.5262 20.9488 20.1652
1 17.1386 21.0057 19.8966
1 16.2191 20.2209 20.6355
1 16.6978 19.4322 21.6919
1 18.0658 19.3579 21.9662
1 19.0274 20.1722 21.239
2 20.4719 19.9801 21.5054
1 21.365 19.9881 20.2186
1 22.0985 21.1202 19.857
1 23.1814 20.9493 18.9262
1 23.5008 19.721 18.3483
1 22.7003 18.6326 18.6753
1 21.5983 18.7936 19.5294
8 24.5722 19.5705 17.4562
8 14.9164 20.205 20.3512
5 19.2163 21.576 19.5288
5 16.8094 21.5977 19.0584
5 16.0578 18.8694 22.3402
5 18.4247 18.7668 22.7812
6 20.6915 19.1014 22.1624
6 20.6469 20.8262 22.1522
5 21.7786 22.0533 20.234
5 23.7845 21.8326 18.5297
5 22.9267 17.6728 18.2385
5 21.1027 17.984 19.8561
4 25.0138 20.332 16.9658
4 24.5402 18.7962 16.8444
4 14.6611 20.4469 19.4352
4 14.409 19.4205 20.709
29
 Atoms. Timestep: 8000
1 18.2254 21.4395 21.5691
1 16.8489 21.3597 21.3099
1 16.3293 20.3626 20.4466
1 17.1234 19.2782 20.0438
1 18.4574 19.2746 20.4169
1 19.0175 20.3811 21.1296
2 20.4844 20.3597 21.5032
1 21.525 20.0045 20.3986
1 21.1799 20.2291 19.107
1 22.059 19.9547 18.0465
1 23.2952 19.4032 18.3578
1 23.6525 19.1281 19.6932
1 22.7305 19.31 20.7026
8 24.2377 19.2334 17.4747
8 14.99 20.4098 20.2099
5 18.7292 22.2489 21.9701
5 16.1566 22.1504 21.5862
5 16.7087 18.5722 19.334
5 19.0387 18.4159 20.1622
6 20.6341 19.6728 22.3108
6 20.791 21.349 21.9197
5 20.1644 20.6318 18.8558
5 21.8312 20.2054 17.0792
5 24.6342 18.6628 19.9457
5 23.0518 19.1583 21.7801
4 24.0207 18.9673 16.5036
4 25.0026 18.589 17.6583
4 14.3887 20.9282 20.8232
4 14.516 19.628 19.7782
29
 Atoms. Timestep: 9000
1 18.4582 21.2082 20.317
1 17.0702 21.0839 20.042
1 16.2961 20.0605 20.5878
1 16.9165 19.0902 21.3791
1 18.3075 19.2769 21.7038
1 19.0763 20.2964 21.1737
2 20.5526 20.3903 21.5646
1 21.431 20.0964 20.3317
1 22.1346 21.1883 19.7704
1 23.1169 20.9365 18.7794
1 23.2879 19.6621 18.2855
1 22.5846 18.5681 18.8291
1 21.6626 18.7411 19.9273
8 24.2306 19.4374 17.3675
8 15.0234 20.0118 20.3084
5 18.9973 22.0139 19.7619
5 16.6309 21.9187 19.4598
5 16.2771 18.3285 21.7723
5 18.7577 18.7519 22.5569
6 20.8428 19.6617 22.3175
6 20.711 21.374 22.0218
5 21.9713 22.1406 20.1707
5 23.8659 21.7428 18.4598
5 22.8046 17.5834 18.471
5 21.2253 18.0046 20.4729
4 24.3499 20.1917 16.7553
4 24.3108 18.5376 16.9662
4 14.4807 20.8498 20.1149
4 14.4753 19.4169 20.9243
29
 Atoms. Timestep: 10000
1 18.4337 21.5696 20.988
1 17.1661 21.3824 20.3214
1 16.6076 20.0792 20.2731
1 17.4447 18.9318 20.5289
1 18.763 19.11 21.0301
1 19.2108 20.4108 21.3256
2 20.6416 20.5797 21.8347
1 21.567 20.2915 20.6787
1 21.6304 21.1169 19.5274
1 22.2461 20.7501 18.3364
1 22.8468 19.4288 18.3098
1 22.8164 18.5861 19.4502
1 22.1724 19.0197 20.6044
8 23.4701 19.0099 17.1936
8 15.2973 19.9589 20.0961
5 18.8133 22.5438 21.1201
5 16.5488 22.2465 20.14
5 17.1111 17.9115 20.2227
5 19.3817 18.27 21.175
6 20.8302 19.8032 22.6484
6 20.8213 21.5749 22.2206
5 21.0148 22.006 19.5107
5 22.2647 21.3715 17.498
5 23.1986 17.5575 19.3616
5 22.2028 18.3778 21.4925
4 23.3572 19.5681 16.3664
4 23.6427 18.0407 16.9981
4 14.7156 20.7572 20.0165
4 14.7958 19.3252 20.6599
29
 Atoms. Timestep: 11000
1 18.2634 20.7942 19.9067
1 16.8665 20.7608 19.8639
1 16.1356 20.1051 20.9121
1 16.8647 19.3226 21.8554
1 18.2555 19.4207 21.9172
1 18.9938 20.1682 20.9834
2 20.4145 20.5144 21.2962
1 21.4862 20.2292 20.1913
1 22.5114 21.163 19.8994
1 23.4695 20.8481 18.9161
1 23.5145 19.5662 18.2592
1 22.5801 18.6385 18.69
1 21.5369 18.9592 19.5847
8 24.4448 19.4337 17.2678
8 14.8184 20.125 20.8983
5 18.7753 21.3189 19.1261
5 16.4595 21.2884 19.0167
5 16.3831 18.686 22.5467
5 18.7132 18.9015 22.7108
6 20.7741 20.0914 22.2109
6 20.3583 21.6486 21.3547
5 22.4487 22.1846 20.2946
5 24.2339 21.5635 18.6619
5 22.519 17.7986 18.075
5 20.8676 18.1601 19.8085
4 24.8147 20.2245 16.7453
4 24.4821 18.5959 16.7313
4 14.3206 20.631 20.2004
4 14.4509 19.1969 20.8856
29
 Atoms. Timestep: 12000
1 18.6097 21.3059 20.6365
1 17.2691 21.259 20.1909
1 16.4667 20.163 20.5335
1 16.9809 19.2029 21.4135
1 18.3032 19.2738 21.8466
1 19.1724 20.2237 21.35
2 20.6601 20.2244 21.7723
1 21.4859 19.9816 20.5423
1 22.0368 21.0731 19.8445
1 22.7587 20.9759 18.6807
1 23.0363 19.675 18.1223
1 22.6353 18.5204 18.8352
1 21.8355 18.6925 20.0338
8 23.6807 19.5275 16.9849
8 15.307 20.0275 19.9135
5 19.2596 22.0456 20.1667
5 16.9425 21.9987 19.4657
5 16.3992 18.3651 21.7824
5 18.5032 18.491 22.5971
6 20.856 19.4283 22.5209
6 20.8547 21.1978 22.118
5 21.877 22.0678 20.1806
5 23.1591 21.8872 18.2374
5 22.7288 17.5063 18.5261
5 21.4794 17.8788 20.5548
4 23.5337 20.1882 16.1917
4 23.673 18.6277 16.4911
4 15.2862 20.4142 18.9729
4 14.6137 19.2812 19.9869
29
 Atoms. Timestep: 13000
1 18.5612 21.2796 20.6141
1 17.2197 21.2674 20.2753
1 16.4245 20.1471 20.5861
1 16.8782 19.051 21.3529
1 18.2597 19.1602 21.8118
1 19.0959 20.2417 21.4215
2 20.5997 20.2852 21.5466
1 21.3926 20.1155 20.3074
1 22.0935 21.1505 19.7015
1 22.9944 20.9045 18.6372
1 23.2059 19.6349 18.1512
1 22.561 18.5832 18.7493
1 21.6073 18.7732 19.7891
8 24.1425 19.3801 17.2915
8 15.112 20.1165 20.2555
5 19.258 22.0741 20.3075
5 16.8815 22.0711 19.6974
5 16.0983 18.3153 21.6585
5 18.6741 18.4486 22.4753
6 20.7708 19.5315 22.3103
6 20.9026 21.2893 21.89
5 21.9208 22.1917 19.9341
5 23.5125 21.695 18.1861
5 22.6653 17.5987 18.4714
5 21.2571 17.7771 20.1972
4 24.6151 20.1791 16.8602
4 23.9572 18.6567 16.5797
4 14.4749 20.86 20.2482
4 14.7199 19.2286 20.1904
29
 Atoms. Timestep: 14000
1 18.1671 21.2998 21.9549
1 16.7794 20.8457 21.7507
1 16.402 19.9275 20.7884
1 17.3509 19.3499 20.003
1 18.7196 19.8001 20.1072
1 19.1757 20.6822 21.1283
2 20.6106 21.0962 21.254
1 21.6161 20.5209 20.2622
1 22.1635 21.2477 19.2356
1 22.8856 20.5661 18.1604
1 23.1111 19.1451 18.2517
1 22.5711 18.4247 19.3841
1 21.81 19.1253 20.38
8 23.8159 18.4929 17.3172
8 15.1187 19.7884 20.4525
5 18.3596 22.0175 22.7137
5 15.9702 21.2811 22.3713
5 17.0812 18.7026 19.2056
5 19.3135 19.4231 19.3225
6 20.9537 20.8928 22.2811
6 20.6015 22.2051 21.1553
5 22.0615 22.31 19.2024
5 23.3433 21.1697 17.316
5 22.7668 17.3257 19.5535
5 21.5052 18.6744 21.2849
4 23.823 19.02 16.4632
4 23.6833 17.5071 17.1147
4 14.3791 20.2613 20.9127
4 14.7232 18.8875 20.3932
29
 Atoms. Timestep: 15000
1 18.2552 20.9268 21.9749
1 16.9074 20.571 22.1131
1 16.207 20.0749 20.9507
1 16.9291 19.9524 19.6985
1 18.2667 20.462 19.6124
1 18.9591 20.8389 20.7874
2 20.4611 21.198 20.8427
1 21.472 20.4291 20.0658
1 21.8927 20.9324 18.776
1 22.8761 20.2314 18.0157
1 23.5037 19.0704 18.4594
1 23.0033 18.543 19.6584
1 22.0401 19.1597 20.5073
8 24.3888 18.4386 17.6744
8 14.9847 19.6236 21.099
5 18.8468 21.196 22.8194
5 16.3451 20.6095 23.0602
5 16.411 19.5928 18.7972
5 18.7547 20.443 18.6725
6 20.866 21.0616 21.8696
6 20.6583 22.2166 20.6183
5 21.4368 21.8191 18.366
5 23.1954 20.7474 17.1217
5 23.4758 17.5673 19.9581
5 21.7218 18.733 21.418
4 24.1907 18.5197 16.6936
4 24.5348 17.4415 17.7408
4 14.6944 19.3398 22.0782
4 14.3587 19.1623 20.4085
29
 Atoms. Timestep: 16000
1 18.818 19.6841 21.1215
1 17.558 19.139 21.0368
1 16.4851 19.9294 20.6751
1 16.6652 21.2904 20.5192
1 17.9381 21.8678 20.5309
1 19.0624 21.023 20.6964
2 20.4651 21.7001 20.5498
1 21.4604 20.734 19.8868
1 21.1884 20.2129 18.6216
1 22.129 19.3119 18.0052
1 23.2593 18.8799 18.7832
1 23.4433 19.3745 20.0801
1 22.4832 20.2172 20.659
8 24.0187 17.8533 18.3798
8 15.2514 19.3775 20.6033
5 19.5648 19.0247 21.5296
5 17.4069 18.1064 21.2083
5 15.8319 21.8955 20.2838
5 17.9907 22.8971 20.2019
6 20.7861 21.9095 21.5129
6 20.3818 22.6443 19.9848
5 20.3008 20.6041 18.0588
5 21.8638 19.077 17.0344
5 24.1642 19.056 20.8447
5 22.6797 20.5383 21.6688
4 23.3321 17.1321 18.0624
4 24.6185 17.4048 19.0982
4 15.336 18.3689 20.6838
4 14.5 19.7341 20.0696
29
 Atoms. Timestep: 17000
1 18.7609 19.6844 20.6505
1 17.4845 19.0599 20.6882
1 16.4058 19.9716 20.8436
1 16.5498 21.404 20.9136
1 17.8336 21.9188 20.6618
1 18.9493 21.0855 20.5691
2 20.3952 21.6618 20.3412
1 21.4098 20.6678 19.7633
1 21.3866 20.1975 18.4285
1 22.3567 19.2953 18.0198
1 23.3506 18.7643 18.8975
1 23.3183 19.2327 20.2348
1 22.3637 20.1244 20.6671
8 24.3087 17.9104 18.5446
8 15.177 19.476 20.9614
5 19.6497 19.0423 20.5707
5 17.3326 17.9929 20.507
5 15.7129 22.0427 21.1578
5 17.9934 22.992 20.6217
6 20.7792 21.9946 21.32
6 20.3082 22.4624 19.688
5 20.5909 20.5137 17.8178
5 22.395 19.0715 16.9422
5 24.1495 18.862 20.8551
5 22.3683 20.4125 21.657
4 24.4008 17.5783 17.6141
4 25.2295 18.0431 18.8983
4 15.0688 18.5968 20.3851
4 14.4395 20.1564 20.7366
29
 Atoms. Timestep: 18000
1 17.916 20.0221 19.2696
1 16.7898 19.5483 19.9592
1 16.5579 19.9612 21.2861
1 17.4847 20.8778 21.8798
1 18.6009 21.4224 21.2599
1 18.8173 20.9597 19.9294
2 19.982 21.4312 19.0818
1 21.1973 20.56 19.2549
1 22.1233 20.6156 18.1931
1 23.3106 19.8066 18.3037
1 23.4492 18.9175 19.3755
1 22.4767 18.8614 20.3626
1 21.3789 19.7096 20.3413
8 24.4669 18.1345 19.3655
8 15.5071 19.5797 21.9546
5 18.0792 19.6938 18.2654
5 16.1846 18.8607 19.5443
5 17.4509 21.1142 22.9637
5 19.2284 22.0934 21.7661
6 20.2494 22.4444 19.3046
6 19.6039 21.4542 18.0403
5 21.9225 21.277 17.3739
5 23.9678 19.9241 17.4703
5 22.4951 18.1894 21.2693
5 20.6495 19.6832 21.1543
4 25.2165 18.2472 18.7374
4 24.5151 17.3738 20.0117
4 14.8661 18.9845 21.4383
4 14.9254 20.3311 22.2272
29
 Atoms. Timestep: 19000
1 17.7665 20.038 19.2934
1 16.7639 19.441 20.0685
1 16.6281 19.9942 21.3516
1 17.4643 20.9753 21.9016
1 18.5424 21.4734 21.1385
1 18.6944 20.9467 19.8617
2 19.8889 21.3736 18.9795
1 21.1487 20.4984 19.0593
1 22.3497 20.791 18.3658
1 23.5262 19.9873 18.4786
1 23.5184 18.9227 19.3817
1 22.3705 18.6498 20.1417
1 21.2144 19.4432 20.0564
8 24.5651 18.1858 19.5973
8 15.5524 19.6765 22.0564
5 18.0046 19.568 18.322
5 16.0905 18.6865 19.5538
5 17.2945 21.486 22.8
5 19.3387 22.1765 21.4312
6 20.2281 22.3568 19.3299
6 19.6087 21.4697 17.8985
5 22.4253 21.6692 17.6888
5 24.3915 20.1832 17.8581
5 22.3494 17.905 20.8373
5 20.3791 19.2024 20.6901
4 25.0984 18.1144 18.7689
4 24.4526 17.3082 20.0892
4 14.6641 19.4934 21.6088
4 15.5142 19.8828 23.0406
29
 Atoms. Timestep: 20000
1 17.9943 19.874 19.3598
1 16.8619 19.481 20.1055
1 16.5547 20.0889 21.3213
1 17.3726 21.1038 21.7615
1 18.5221 21.5356 21.1032
1 18.7508 20.9508 19.8335
2 19.9195 21.3817 19.0412
1 21.0962 20.451 19.1534
1 22.2295 20.7774 18.4092
1 23.3909 19.9696 18.4084
1 23.4813 18.9359 19.3382
1 22.3519 18.6582 20.1487
1 21.1537 19.3594 20.0458
8 24.6014 18.2261 19.5176
8 15.5919 19.5984 22.0782
5 18.209 19.4703 18.4433
5 16.2835 18.6349 19.7216
5 17.2191 21.6182 22.6911
5 19.0712 22.3694 21.5868
6 20.2481 22.4827 19.3137
6 19.6295 21.4581 17.967
5 22.2247 21.6023 17.769
5 24.2355 20.2095 17.772
5 22.4651 17.8172 20.8457
5 20.3032 19.2031 20.6573
4 25.438 18.3807 18.9924
4 24.854 17.9907 20.4714
4 15.2693 18.6274 21.9828
4 15.683 19.7766 23.087
29
 Atoms. Timestep: 21000
1 18.0184 19.4569 19.7083
1 16.8557 19.3222 20.45
1 16.5556 20.3421 21.4577
1 17.3119 21.5712 21.4838
1 18.3164 21.7263 20.488
1 18.7 20.6509 19.671
2 19.7899 20.8922 18.645
1 21.1204 20.2708 19.0482
1 22.2412 21.0197 19.5144
1 23.4964 20.3788 19.6825
1 23.5251 19.0028 19.4742
1 22.3762 18.2459 19.185
1 21.1861 18.8718 18.9085
8 24.7311 18.372 19.4579
8 15.6813 20.1871 22.4125
5 18.3149 18.7247 18.9564
5 16.3141 18.4247 20.3636
5 17.0222 22.3039 22.2574
5 18.8803 22.5907 20.3879
6 19.8954 21.9493 18.3384
6 19.5006 20.485 17.6251
5 22.1938 22.0675 19.7066
5 24.3412 21.0042 20.1121
5 22.4153 17.1343 19.0925
5 20.2926 18.2469 18.7339
4 25.4449 18.7847 20.0761
4 24.683 17.3593 19.7156
4 15.2668 19.3078 22.6358
4 15.7386 20.7675 23.2164
29
 Atoms. Timestep: 22000
1 18.786 19.7963 20.6701
1 17.6845 19.6438 21.5361
1 16.6218 20.5105 21.6134
1 16.4576 21.4495 20.5976
1 17.5165 21.6468 19.6766
1 18.6889 20.8753 19.7493
2 19.9081 21.1905 18.8239
1 21.1531 20.2829 19.0634
1 22.0754 20.5063 20.1189
1 23.2165 19.7076 20.2522
1 23.5417 18.6993 19.3287
1 22.6769 18.5496 18.2235
1 21.4865 19.2929 18.1346
8 24.6189 17.9689 19.5273
8 15.5454 20.2342 22.3962
5 19.6419 19.0951 20.7876
5 17.7542 18.7068 22.0935
5 15.5569 22.0568 20.4611
5 17.3368 22.4461 18.978
6 20.1075 22.1824 19.0798
6 19.6009 21.2276 17.8013
5 21.81 21.2909 20.7953
5 23.8419 19.851 21.0631
5 22.9954 17.9081 17.4794
5 20.8635 19.1125 17.3062
4 25.285 18.1767 20.2254
4 25.0535 17.4771 18.7791
4 15.4393 19.2609 22.6976
4 14.6527 20.5442 22.0781
29
 Atoms. Timestep: 23000
1 19.0333 20.5903 21.4157
1 17.78 20.0639 21.9536
1 16.5492 20.1023 21.2124
1 16.6036 20.6041 19.8659
1 17.7937 21.1906 19.4393
1 18.9952 21.1885 20.138
2 20.2621 21.697 19.5504
1 21.3065 20.594 19.3218
1 22.5729 20.8341 19.8516
1 23.5323 19.8455 19.703
1 23.2342 18.6113 19.1264
1 21.9436 18.3759 18.6702
1 20.9837 19.3717 18.7961
8 24.1482 17.6594 19.024
8 15.3723 19.7475 21.7251
5 19.9005 20.6378 22.0165
5 17.9095 19.6733 22.9625
5 15.7738 20.6007 19.2092
5 17.8004 21.6272 18.3889
6 20.6276 22.4922 20.1622
6 20.1615 22.2361 18.6909
5 22.8413 21.8038 20.235
5 24.6062 20.1173 19.9383
5 21.5963 17.3983 18.3325
5 19.9707 19.2219 18.3558
4 24.9523 17.6761 19.6161
4 23.7917 16.717 19.0297
4 15.234 19.3876 22.6824
4 14.4648 19.8733 21.357
29
 Atoms. Timestep: 24000
1 19.0013 20.8043 21.3983
1 17.7873 20.4943 22.0433
1 16.5572 20.304 21.3709
1 16.5274 20.5064 20.0349
1 17.6522 21.0127 19.3236
1 18.8883 21.0873 20.0646
2 20.1521 21.5275 19.2495
1 21.2198 20.4704 19.3123
1 22.2614 20.4802 20.2832
1 23.2701 19.4977 20.2286
1 23.2941 18.5642 19.1744
1 22.3049 18.594 18.1492
1 21.2907 19.5549 18.2541
8 24.3665 17.7702 18.9633
8 15.4933 19.7871 21.9811
5 19.8752 20.9197 21.9128
5 17.9634 20.5455 23.1438
5 15.5741 20.4253 19.5074
5 17.6327 21.2113 18.2293
6 20.3804 22.4371 19.7516
6 19.918 21.7795 18.2139
5 22.3116 21.232 21.0534
5 24.1217 19.5983 20.8998
5 22.1993 17.9109 17.343
5 20.5498 19.4789 17.5457
4 24.716 17.3348 19.7833
4 24.215 17.1792 18.1876
4 15.4031 19.654 23.0097
4 14.6229 19.7042 21.5601
29
 Atoms. Timestep: 25000
1 18.4124 21.9416 21.1853
1 17.2684 21.5725 21.8974
1 16.623 20.3143 21.5377
1 17.0852 19.5061 20.4353
1 18.2088 19.9528 19.6951
1 18.8841 21.1601 20.1182
2 20.1853 21.5333 19.398
1 21.2121 20.4354 19.2099
1 21.5912 19.6086 20.3179
1 22.5765 18.5907 20.1244
1 23.3069 18.5837 18.9416
1 22.9169 19.3694 17.8444
1 21.8243 20.241 17.9733
8 24.267 17.6969 18.8017
8 15.5813 19.9287 22.2721
5 18.9639 22.8861 21.448
5 16.974 22.1503 22.7645
5 16.6321 18.6175 20.1027
5 18.6093 19.5114 18.8491
6 20.5764 22.3591 19.9577
6 19.9928 21.936 18.428
5 21.1149 19.7983 21.2691
5 22.8311 18.0538 20.9832
5 23.5638 19.1982 17.0159
5 21.4522 20.7506 17.0524
4 24.7493 17.3125 19.6265
4 24.8815 17.6667 17.9712
4 15.5091 20.2 23.2835
4 15.1259 19.0766 22.0747
29
 Atoms. Timestep: 26000
1 19.057 20.5451 21.2354
1 17.929 19.8557 21.7883
1 16.6855 20.0699 21.2749
1 16.5512 20.7762 20.0969
1 17.6574 21.3736 19.4663
1 18.9376 21.2936 20.0262
2 20.1717 21.7159 19.1979
1 21.2431 20.6285 19.1754
1 22.5392 20.8659 19.7883
1 23.5353 19.8519 19.7991
1 23.215 18.6192 19.2571
1 21.9412 18.3613 18.6879
1 20.9574 19.3538 18.644
8 24.0563 17.6488 19.37
8 15.6333 19.5794 21.8512
5 20.0398 20.2529 21.6084
5 18.0488 19.172 22.626
5 15.6016 21.0257 19.6882
5 17.4215 21.9484 18.5224
6 20.5361 22.6673 19.6318
6 19.9898 21.8742 18.1195
5 22.6388 21.8696 20.2738
5 24.4767 20.0826 20.3722
5 21.6469 17.4155 18.2616
5 19.8962 19.2184 18.3958
4 24.8316 17.8048 19.9565
4 23.7271 16.753 19.68
4 15.7733 19.1284 22.8123
4 14.6743 19.8578 21.6987
29
 Atoms. Timestep: 27000
1 18.6054 21.0761 21.6046
1 17.3616 20.6946 22.183
1 16.3947 20.2979 21.3015
1 16.6154 20.1389 19.8797
1 17.8562 20.4968 19.3034
1 18.8531 21.0091 20.2006
2 20.2896 21.536 19.7955
1 21.3868 20.4977 19.4483
1 22.7214 20.6709 19.9466
1 23.7788 19.8054 19.5863
1 23.4427 18.6525 18.8911
1 22.1507 18.3883 18.4471
1 21.094 19.3228 18.6624
8 24.3899 17.7502 18.7522
8 15.173 20.0386 21.8496
5 19.3798 21.4955 22.2432
5 17.2552 20.7094 23.2679
5 15.8883 19.7733 19.1469
5 18.1395 20.4582 18.2885
6 20.6662 22.1983 20.5417
6 20.2736 22.1611 18.8893
5 22.9294 21.5459 20.4792
5 24.7223 19.9885 19.9892
5 21.8668 17.6031 17.7677
5 20.1448 19.1427 18.1849
4 24.7452 17.2814 19.5844
4 24.1597 16.9396 18.1867
4 14.9978 20.6625 22.632
4 14.3456 19.9409 21.372
29
 Atoms. Timestep: 28000
1 18.6309 19.5796 20.3254
1 17.6748 19.4075 21.3328
1 16.7513 20.4064 21.5732
1 16.774 21.5409 20.7322
1 17.7791 21.7932 19.8123
1 18.7131 20.7508 19.5594
2 19.8144 21.0276 18.6029
1 21.0865 20.34 18.9114
1 21.8998 20.6768 19.9792
1 23.0889 19.9968 20.2316
1 23.4204 18.8225 19.5057
1 22.5764 18.4779 18.4446
1 21.4428 19.2443 18.1008
8 24.4572 18.0528 19.8331
8 15.8712 20.265 22.5634
5 19.3762 18.8024 20.2211
5 17.7195 18.5052 22.0016
5 16.0441 22.2988 20.8542
5 17.9099 22.6944 19.2572
6 19.9196 22.1024 18.5479
6 19.6003 20.69 17.6243
5 21.5612 21.4885 20.6123
5 23.7449 20.2084 21.12
5 22.7866 17.6344 17.8009
5 20.703 18.9325 17.3494
4 24.666 17.8831 20.8396
4 24.8709 17.2681 19.3078
4 15.5702 19.3967 23.0179
4 15.1071 20.8747 22.5661
29
 Atoms. Timestep: 29000
1 17.5228 19.1368 20.2083
1 16.8477 19.7693 21.2743
1 17.0912 21.1135 21.6463
1 17.9552 21.8507 20.8556
1 18.7055 21.2307 19.8022
1 18.3979 19.886 19.4744
2 19.2701 19.2599 18.3984
1 20.7698 19.327 18.7454
1 21.4026 18.2305 19.3026
1 22.7272 18.3578 19.8025
1 23.483 19.5031 19.7263
1 22.9907 20.5051 18.9014
1 21.602 20.4108 18.3974
8 24.654 19.4916 20.2964
8 16.3664 21.6854 22.6166
5 17.4411 18.0965 19.9768
5 16.2014 19.1759 21.8187
5 18.2315 22.9017 21.17
5 19.4923 21.7863 19.248
6 19.0327 19.9203 17.5028
6 18.9742 18.1957 18.1924
5 20.8946 17.3446 19.6291
5 23.1304 17.5841 20.2972
5 23.5485 21.3996 18.695
5 21.1376 21.1345 17.7759
4 25.2653 18.671 20.3336
4 25.066 20.4315 20.2445
4 15.4459 21.3143 22.9929
4 16.6684 22.5949 22.9311
29
 Atoms. Timestep: 30000
1 18.5062 19.516 20.2034
1 17.4904 19.4072 21.2028
1 16.6672 20.4884 21.627
1 16.9086 21.7562 21.0205
1 17.8524 21.8371 19.9652
1 18.69 20.7848 19.6099
2 19.8705 20.9991 18.6744
1 21.1199 20.221 18.9791
1 21.7285 20.335 20.2694
1 22.9532 19.6631 20.4936
1 23.4496 18.7437 19.4923
1 22.8124 18.5774 18.2337
1 21.6797 19.3651 17.9908
8 24.6277 18.2326 19.602
8 15.6152 20.309 22.3929
5 19.1772 18.721 20.0375
5 17.394 18.4281 21.7072
5 16.3535 22.5708 21.226
5 17.8755 22.737 19.4318
6 20.0695 22.0877 18.5146
6 19.5721 20.7687 17.5842
5 21.2562 20.9136 21.0828
5 23.4075 19.8286 21.5375
5 23.1333 17.9138 17.4655
5 21.1439 19.1989 17.0523
4 25.4216 18.854 19.7825
4 24.86 17.7225 18.7159
4 15.2798 19.352 22.4909
4 14.9144 20.9816 22.3171
29
 Atoms. Timestep: 31000
1 17.9604 19.4553 19.7823
1 16.988 19.4352 20.7898
1 16.6756 20.5776 21.5868
1 17.3697 21.7668 21.3621
1 18.4104 21.7833 20.3898
1 18.6712 20.6703 19.5412
2 19.7324 20.7526 18.4516
1 20.9464 19.9911 18.8393
1 21.5121 20.2073 20.1466
1 22.8042 19.6787 20.4546
1 23.5915 19.0349 19.4817
1 23.0385 18.8102 18.2328
1 21.7078 19.244 17.9334
8 24.7602 18.4525 19.94
8 15.7282 20.4111 22.5519
5 18.1801 18.5083 19.2074
5 16.3958 18.5162 20.8745
5 17.2757 22.7917 21.9813
5 19.0597 22.7162 20.3636
6 20.0597 21.8387 18.2379
6 19.3522 20.3835 17.4931
5 21.0894 20.7001 20.965
5 23.1629 19.7996 21.4533
5 23.5578 18.2275 17.4406
5 21.4334 19.0649 16.9532
4 24.7895 18.1838 20.8851
4 25.2379 17.6998 19.452
4 15.2704 19.4701 22.7106
4 15.4019 21.1189 23.1978
29
 Atoms. Timestep: 32000
1 17.2045 19.4947 19.6994
1 16.4558 20.0898 20.6729
1 17.009 21.0922 21.5638
1 18.3888 21.3864 21.4535
1 19.1302 20.8905 20.3685
1 18.5327 19.9663 19.4434
2 19.3252 19.243 18.3756
1 20.7903 19.2278 18.74
1 21.2831 18.4433 19.8224
1 22.615 18.5378 20.288
1 23.4802 19.4992 19.6666
1 23.0403 20.2801 18.5852
1 21.6977 20.1059 18.1396
8 24.6635 19.7956 20.1467
8 16.2481 21.6528 22.4954
5 16.7198 18.8006 19.0559
5 15.4635 19.7846 20.8529
5 18.8162 22.0257 22.1441
5 20.1209 21.0939 20.2834
6 19.1703 19.5672 17.3663
6 19.0358 18.1513 18.4978
5 20.6063 17.7491 20.4183
5 23.097 17.9176 21.0363
5 23.76 20.8966 17.997
5 21.3946 20.7673 17.3267
4 24.5327 20.4754 20.8437
4 25.2598 20.3264 19.5142
4 15.2413 21.5597 22.4538
4 16.5909 21.5258 23.3989
29
 Atoms. Timestep: 33000
1 17.8157 19.3389 20.2185
1 16.8205 19.5728 21.1867
1 16.615 20.9351 21.6351
1 17.2921 21.9739 20.9456
1 18.2235 21.7162 19.955
1 18.5537 20.3879 19.5977
2 19.6089 20.0636 18.5521
1 21.0562 19.7093 18.9085
1 21.3651 19.0096 20.0753
1 22.7117 18.654 20.3664
1 23.7367 19.0022 19.4637
1 23.414 19.6886 18.2716
1 22.0834 20.1018 18.0136
8 24.9673 18.7422 19.7771
8 15.6297 21.1105 22.5249
5 18.1171 18.2721 20.0666
5 16.3238 18.7453 21.6812
5 17.0408 22.9957 21.1456
5 18.7098 22.6029 19.4462
6 19.4608 20.818 17.7859
6 19.0689 19.165 18.2209
5 20.6451 18.7906 20.8186
5 22.904 18.231 21.3309
5 24.1209 20.1218 17.6799
5 21.9248 20.6482 17.1268
4 25.3203 18.4682 20.6612
4 25.6598 19.3897 19.4297
4 14.8982 20.4332 22.7285
4 15.8925 21.5319 23.375
29
 Atoms. Timestep: 34000
1 18.5493 19.6106 20.075
1 17.502 19.3398 21.0036
1 16.7037 20.3547 21.4441
1 16.9239 21.6346 20.8905
1 17.9753 21.9475 19.9941
1 18.8137 20.8994 19.5546
2 19.8299 21.0674 18.5479
1 21.1532 20.4083 18.9198
1 21.884 20.654 20.1286
1 23.0378 19.8377 20.465
1 23.2935 18.7615 19.6158
1 22.5951 18.5067 18.465
1 21.4953 19.2925 18.1473
8 24.3394 17.9574 19.8502
8 15.8257 20.0912 22.472
5 19.169 18.8108 19.8254
5 17.5619 18.3325 21.4076
5 16.2034 22.3896 21.0746
5 18.0254 22.9556 19.5307
6 20.1405 22.1315 18.5563
6 19.4754 20.8256 17.6093
5 21.6629 21.3852 20.9246
5 23.6707 20.1461 21.3498
5 22.9577 17.7821 17.7092
5 20.7326 18.9849 17.3452
4 25.2679 18.3744 19.9065
4 24.4685 17.139 19.2517
4 16.0626 19.4293 23.2377
4 15.2079 20.8437 22.7536
29
 Atoms. Timestep: 35000
1 17.9618 19.3644 20.2296
1 16.818 19.4807 21.0149
1 16.473 20.698 21.5301
1 17.2036 21.9008 21.1687
1 18.2686 21.7761 20.288
1 18.6693 20.49 19.7632
2 19.7534 20.4317 18.7031
1 21.1061 19.9501 18.9293
1 21.5852 19.7431 20.2215
1 22.8828 19.2675 20.4772
1 23.7138 18.9501 19.42
1 23.2339 19.1364 18.057
1 21.9198 19.4985 17.8365
8 24.8861 18.4921 19.7329
8 15.4463 20.8475 22.3343
5 18.3029 18.4174 19.7811
5 16.3335 18.5709 21.3464
5 16.8884 22.8906 21.4183
5 18.7715 22.6509 20.0618
6 19.8501 21.4465 18.3496
6 19.4098 19.8185 17.8617
5 21.0257 20.0377 21.0795
5 23.2574 19.1707 21.4613
5 23.9245 18.951 17.2555
5 21.6423 19.6181 16.831
4 25.4374 18.7258 20.5576
4 25.6012 18.4848 19.0125
4 14.6399 20.4221 21.9561
4 15.1896 21.7792 22.4364
29
 Atoms. Timestep: 36000
1 17.6478 19.2042 20.0139
1 16.7631 19.6466 21.0237
1 16.8797 20.9675 21.5707
1 17.7859 21.877 21.0387
1 18.5363 21.467 19.9541
1 18.5558 20.1614 19.4546
2 19.4403 19.8187 18.3424
1 20.8539 19.5642 18.85
1 21.1898 18.5299 19.7985
1 22.5609 18.4195 20.2778
1 23.478 19.2367 19.6724
1 23.2442 20.1928 18.7049
1 21.8946 20.37 18.3258
8 24.7998 19.0715 19.9866
8 16.1799 21.4053 22.581
5 17.4363 18.2269 19.6107
5 16.0961 18.9539 21.4159
5 17.9688 22.829 21.518
5 19.4158 22.1318 19.6337
6 19.4117 20.534 17.5286
6 19.223 18.7916 17.97
5 20.3732 17.8324 20.1737
5 22.7742 17.7402 21.0903
5 24.0721 20.7016 18.172
5 21.6775 21.1151 17.6067
4 25.1507 18.1724 20.3185
4 25.508 19.5494 19.4459
4 15.32 20.9052 22.5471
4 15.8974 22.3795 22.7061
29
 Atoms. Timestep: 37000
1 17.2202 20.1175 19.2858
1 16.3176 20.8297 20.1284
1 16.6103 21.2384 21.4634
1 17.8744 20.811 21.9657
1 18.7288 20.087 21.15
1 18.4602 19.7952 19.8109
2 19.4573 19.0186 19.0224
1 20.9665 19.2634 19.2098
1 21.7326 18.2802 19.902
1 23.1064 18.4322 19.9853
1 23.7898 19.5263 19.3379
1 23.0279 20.3846 18.4707
1 21.6266 20.2805 18.4913
8 25.1149 19.634 19.3565
8 15.7752 21.9452 22.1246
5 16.8809 19.9418 18.2481
5 15.3302 21.0627 19.7465
5 18.0854 20.9932 22.9829
5 19.5921 19.7332 21.6634
6 19.2754 19.2043 17.8814
6 19.2925 17.975 19.2503
5 21.2019 17.541 20.4165
5 23.6912 17.7184 20.5399
5 23.6024 21.1286 17.8794
5 21.0614 20.9788 17.8587
4 25.5606 19.231 20.18
4 25.3723 20.6098 19.281
4 15.2661 22.6907 21.7336
4 16.3035 22.3075 22.9229
29
 Atoms. Timestep: 38000
1 17.8593 21.2798 19.4835
1 16.9893 21.6145 20.5634
1 16.9657 20.7939 21.7105
1 17.7624 19.6345 21.8376
1 18.5875 19.2926 20.779
1 18.5649 20.0399 19.5818
2 19.3762 19.6154 18.3756
1 20.7806 19.5796 18.7591
1 21.4007 20.7457 19.188
1 22.7291 20.691 19.5788
1 23.4859 19.4902 19.4202
1 22.8674 18.3266 18.9087
1 21.4566 18.3416 18.6389
8 24.7646 19.3686 19.8068
8 16.1924 21.1135 22.7927
5 17.9614 21.8635 18.6131
5 16.3985 22.4866 20.3343
5 17.8517 18.9468 22.7071
5 19.2026 18.3468 20.7722
6 19.3035 20.3408 17.5749
6 18.9904 18.5913 18.0745
5 20.8085 21.7118 19.2254
5 23.2348 21.4942 20.0336
5 23.3772 17.4022 18.7505
5 21.0724 17.3922 18.4077
4 25.0323 20.0563 20.5179
4 25.1365 18.4782 20.1421
4 15.8669 22.0263 22.8358
4 16.4591 20.773 23.7194
29
 Atoms. Timestep: 39000