LAMMPS (2 Aug 2023)
units real
atom_style full

dimension 3
boundary p p p

pair_style lj/cut/coul/cut 15.0 15.0
pair_modify mix geometric

bond_style harmonic
angle_style harmonic
dihedral_style opls
improper_style cvff
special_bonds lj/coul 0.0 0.0 0.5

read_data MDA.dat
Reading data file ...
  orthogonal box = (-2.96157 -0.74222 -2.77692) to (47.03843 49.25778 47.22308)
  1 by 1 by 1 MPI processor grid
  reading atoms ...
  29 atoms
  scanning bonds ...
  2 = max bonds/atom
  scanning angles ...
  6 = max angles/atom
  scanning dihedrals ...
  10 = max dihedrals/atom
  scanning impropers ...
  2 = max impropers/atom
  reading bonds ...
  30 bonds
  reading angles ...
  48 angles
  reading dihedrals ...
  68 dihedrals
  reading impropers ...
  16 impropers
Finding 1-2 1-3 1-4 neighbors ...
  special bond factors lj:    0        0        0.5     
  special bond factors coul:  0        0        0.5     
     4 = max # of 1-2 neighbors
     7 = max # of 1-3 neighbors
    13 = max # of 1-4 neighbors
    16 = max # of special neighbors
  special bonds CPU = 0.000 seconds
  read_data CPU = 0.003 seconds

#kspace_style    pppm 1e-5
#kspace_modify  slab 3.0

neighbor        1.0 bin
neigh_modify    delay 0 every 1 check yes

thermo          1000
thermo_style    custom step temp density press pxx pyy pzz pxy pxz pyz ke pe etotal vol lx ly lz

dump            1 all xyz 1000 dump_relax.xyz
#dump_modify     1 sort id

#NVT/NPT melt run
fix             1 all nvt temp 300 300 100
#fix             1 all npt temp 400 400 100 iso 1 1 1000
fix             2 all recenter 20.0 20.0 20.0
run             100000
Generated 55 of 55 mixed pair_coeff terms from geometric mixing rule
Neighbor list info ...
  update: every = 1 steps, delay = 0 steps, check = yes
  max neighbors/atom: 2000, page size: 100000
  master list distance cutoff = 16
  ghost atom cutoff = 16
  binsize = 8, bins = 7 7 7
  1 neighbor lists, perpetual/occasional/extra = 1 0 0
  (1) pair lj/cut/coul/cut, perpetual
      attributes: half, newton on
      pair build: half/bin/newton
      stencil: half/bin/3d
      bin: standard
Per MPI rank memory allocation (min/avg/max) = 12.45 | 12.45 | 12.45 Mbytes
   Step          Temp         Density         Press           Pxx            Pyy            Pzz            Pxy            Pxz            Pyz           KinEng         PotEng         TotEng         Volume           Lx             Ly             Lz      
         0   0              0.0026338671   119.92655      131.98415      63.621762      164.17372      25.269849      1.8174637      54.687748      0              60.690492      60.690492      125000         50             50             50           
      1000   260.2929       0.0026338671  -7.14464        54.605064     -26.186258     -49.852727      3.5929988      29.782632      15.921418      21.724744     -20.908167      0.8165763      125000         50             50             50           
      2000   288.83874      0.0026338671   25.159227      8.9810909      57.693575      8.8030157      5.1639839     -4.4067686      5.7451826      24.107256     -25.524292     -1.4170361      125000         50             50             50           
      3000   327.64997      0.0026338671  -41.157345     -60.335704     -90.716388      27.580057     -5.6196394      2.647001       1.709463       27.346545     -15.012223      12.334322      125000         50             50             50           
      4000   284.1479       0.0026338671   0.16532967     52.578403     -37.875548     -14.206866     -6.1784261     -8.407002       15.443891      23.715745     -21.581005      2.1347403      125000         50             50             50           
      5000   337.53411      0.0026338671  -10.964986      2.0531872     -6.8426343     -28.10551       39.0755       -28.727193     -3.4149792      28.171502     -20.424872      7.7466305      125000         50             50             50           
      6000   238.70187      0.0026338671   29.094275      3.0821576      12.126365      72.074302      13.629982     -39.238555     -16.890984      19.922698     -22.772744     -2.8500456      125000         50             50             50           
      7000   339.25781      0.0026338671  -8.8165829     -40.557478      58.54958      -44.44185       10.229619      74.351885      23.866506      28.315366     -20.830141      7.4852256      125000         50             50             50           
      8000   281.42889      0.0026338671   24.268043      11.058985      1.6092191      60.135924     -3.7638763     -21.452649     -16.994419      23.48881      -20.758072      2.7307379      125000         50             50             50           
      9000   322.67538      0.0026338671   0.69565453    -33.027777      36.682496     -1.5677548      2.9697542      9.1654787     -10.492997      26.931353     -21.782141      5.1492116      125000         50             50             50           
     10000   408.90352      0.0026338671  -23.713246     -16.503287     -53.12965      -1.5068009      25.263829     -34.736144      21.519481      34.128184     -24.125322      10.002862      125000         50             50             50           
     11000   299.09602      0.0026338671  -7.3954328      8.9630391      0.66831177    -31.817649      40.897276      28.844849      6.5465098      24.963356     -20.224379      4.7389771      125000         50             50             50           
     12000   253.91602      0.0026338671   0.40649037     13.567055      1.165296      -13.512879      25.188086     -3.2409654     -5.0590026      21.192512     -21.840427     -0.64791524     125000         50             50             50           
     13000   363.81856      0.0026338671   20.050752     -5.3640369      27.942345      37.573947     -50.21776       1.9130172     -2.978945       30.365272     -11.434604      18.930669      125000         50             50             50           
     14000   277.95957      0.0026338671  -48.654147     -66.044413     -51.094767     -28.823261     -13.783455      9.9396118      7.5168996      23.199251     -15.942384      7.2568669      125000         50             50             50           
     15000   225.83157      0.0026338671  -55.273158     -82.899086     -22.919635     -60.000754      10.522252     -1.8479747     -16.232929      18.848508     -19.380267     -0.53175849     125000         50             50             50           
     16000   310.45186      0.0026338671   8.9334228     -4.5752167      3.956164       27.419321     -4.3758932      8.5832672      21.32308       25.911145     -16.393434      9.5177106      125000         50             50             50           
     17000   290.83466      0.0026338671  -14.960226     -17.733283     -46.468831      19.321438     -0.36750975     1.1326792     -8.5899033      24.273841     -23.096987      1.1768537      125000         50             50             50           
     18000   446.413        0.0026338671   42.358043      81.177748      43.373638      2.5227431     -30.677706     -43.648135     -11.26974       37.258826     -21.355814      15.903012      125000         50             50             50           
     19000   286.56951      0.0026338671  -3.9363918     -10.149471     -10.940295      9.28059       -25.241119     -34.096563     -9.5737781      23.91786      -20.590344      3.3275164      125000         50             50             50           
     20000   246.88299      0.0026338671   32.431411      57.431033     -5.6347137      45.497913     -4.1974162     -43.407819     -26.116583      20.605517     -25.405096     -4.7995791      125000         50             50             50           
     21000   320.4916       0.0026338671  -18.564658      2.276412      -8.7326119     -49.237775     -15.032309     -24.613797     -42.760518      26.749088     -17.612138      9.1369502      125000         50             50             50           
     22000   238.45109      0.0026338671   25.977427     -26.033886      28.008611      75.957556      28.879314      22.584773      32.731418      19.901767     -23.638111     -3.7363436      125000         50             50             50           
     23000   369.43339      0.0026338671   24.171277      15.588532      46.887875      10.037424     -26.719751      24.030023      15.830901      30.833901     -21.218069      9.6158319      125000         50             50             50           
     24000   426.4183       0.0026338671   22.585496      1.3926743      32.513787      33.850028     -5.3182262      7.663118       1.9658671      35.590015     -17.119485      18.47053       125000         50             50             50           
     25000   418.09707      0.0026338671  -15.802764      7.1110838     -37.143671     -17.375706     -11.820373     -1.6098194     -36.388737      34.895502     -23.081101      11.814401      125000         50             50             50           
     26000   243.68378      0.0026338671  -12.964869      0.26974325     6.1297471     -45.294099     -14.51174      -5.4181454      7.2598909      20.338501     -20.812029     -0.47352743     125000         50             50             50           
     27000   289.17532      0.0026338671  -28.351296     -41.696503      0.25165921    -43.609044     -10.198952      39.916884      9.4748608      24.135348     -17.392585      6.7427625      125000         50             50             50           
     28000   209.95486      0.0026338671   34.053933      65.952291      30.197018      6.0124891     -31.975328     -15.761888      34.831886      17.523395     -24.080725     -6.5573295      125000         50             50             50           
     29000   265.30302      0.0026338671   0.21571302    -46.189994      34.580504      12.256629      1.6183102     -17.799536     -48.967872      22.142901     -10.193207      11.949695      125000         50             50             50           
     30000   289.80246      0.0026338671  -27.072751      44.28994       0.89024235    -126.39843     -30.485269      9.1037509     -51.050405      24.187691     -17.81082       6.3768704      125000         50             50             50           
     31000   265.08439      0.0026338671  -76.395134     -61.879585     -150.86076     -16.445057     -10.38768       17.05102      -28.465882      22.124654     -15.291127      6.8335265      125000         50             50             50           
     32000   302.03031      0.0026338671   2.7488065      9.0337871     -31.422093      30.634726     -36.730259     -1.0230335      31.94523       25.20826      -15.812353      9.3959072      125000         50             50             50           
     33000   321.61369      0.0026338671   2.6619151      0.42509351    -38.433188      45.99384      -15.827052      0.11621862     16.13685       26.842741     -18.673881      8.1688599      125000         50             50             50           
     34000   317.46171      0.0026338671  -12.537669     -10.76383       5.6280587     -32.477235     -51.363875     -34.686556      27.579106      26.496205     -11.345326      15.150879      125000         50             50             50           
     35000   331.19162      0.0026338671   53.412637      97.042531      29.42002       33.775359     -24.668272     -17.474788      1.5794024      27.642141     -18.230778      9.4113627      125000         50             50             50           
     36000   260.91577      0.0026338671  -12.308666     -30.232467     -40.670439      33.976908     -5.3939802     -39.223373     -1.6173881      21.776729     -17.165131      4.6115979      125000         50             50             50           
     37000   377.27309      0.0026338671   0.4205797      20.992041      7.4195202     -27.149822     -24.428232     -8.5119924      30.428969      31.488224     -20.741579      10.746645      125000         50             50             50           
     38000   442.4155       0.0026338671  -6.0063807      40.45351      -45.582896     -12.889756      37.978092      1.9960341      31.899911      36.925184     -22.816245      14.108938      125000         50             50             50           
     39000   290.39557      0.0026338671   4.1325274     -12.63949      -5.0445954      30.081668     -9.6565071      4.6288085      5.6487767      24.237193     -20.30162       3.935573       125000         50             50             50           
     40000   305.87091      0.0026338671  -18.005535     -91.270835      11.936355      25.317874      43.937505     -3.6162569      18.186578      25.528807     -18.466529      7.0622772      125000         50             50             50           
     41000   320.38425      0.0026338671  -13.528169     -30.950263     -39.728509      30.094266      24.4118        20.522899      33.938577      26.740128     -20.471567      6.2685611      125000         50             50             50           
     42000   319.61473      0.0026338671   73.471153      79.235003      114.88529      26.293166     -19.853789      4.2175         38.598942      26.675903     -4.4528847      22.223018      125000         50             50             50           
     43000   256.78442      0.0026338671   25.099847     -13.982026      18.913606      70.36796       4.4503938      12.814562      0.61868238     21.431916     -22.227854     -0.79593742     125000         50             50             50           
     44000   291.75463      0.0026338671  -3.5471501     -26.603563     -3.9688838      19.930996     -34.181362     -24.364603     -3.3153682      24.350624     -10.982123      13.368501      125000         50             50             50           
     45000   332.62074      0.0026338671  -21.763187     -76.283962      32.900317     -21.905917     -52.032393      11.547577     -5.8363442      27.761419     -22.789789      4.9716301      125000         50             50             50           
     46000   260.19844      0.0026338671   65.390014      64.375381      77.790598      54.004062     -6.8514122      9.2901703      2.2765525      21.71686      -21.08119       0.63566968     125000         50             50             50           
     47000   343.06178      0.0026338671   70.997908      52.794377      14.263877      145.93547      5.6900222      39.185507     -0.59765011     28.632856     -18.567851      10.065005      125000         50             50             50           
     48000   414.95556      0.0026338671   12.37302       5.9776338      16.822285      14.31914      -17.030648     -29.821988      12.810733      34.633304     -20.020154      14.61315       125000         50             50             50           
     49000   262.01683      0.0026338671  -14.746574     -48.289622     -43.519323      47.569222      4.7176126      2.5821027     -26.236242      21.868627     -19.979895      1.888732       125000         50             50             50           
     50000   284.08406      0.0026338671   15.721986      8.0554637      16.177938      22.932556     -56.384753      10.313858      6.4766577      23.710418     -19.111114      4.5993037      125000         50             50             50           
     51000   306.89581      0.0026338671   54.550197      71.697685      59.933851      32.019056      5.2586389     -22.496827      8.3049044      25.614347     -15.609991      10.004356      125000         50             50             50           
     52000   269.99473      0.0026338671  -5.8466038     -28.337474     -2.1817001      12.979363      35.157435     -16.87931       25.103405      22.534484     -18.633539      3.9009449      125000         50             50             50           
     53000   250.38891      0.0026338671  -0.85559037     27.346301      12.258212     -42.171284      11.971466     -28.892597      1.3388714      20.89813      -13.589231      7.3088994      125000         50             50             50           
     54000   216.26706      0.0026338671   4.9121502      45.039126      13.209379     -43.512054     -29.131801      13.604532     -13.112087      18.050228     -13.032635      5.0175931      125000         50             50             50           
     55000   337.34861      0.0026338671   3.1207013     -9.2206453      15.179443      3.4033065     -22.278232      54.28372       39.356787      28.156019     -17.202404      10.953615      125000         50             50             50           
     56000   249.12747      0.0026338671  -18.652233     -60.756027     -0.29671754     5.0960453      24.712372     -47.986344      25.046414      20.792847     -13.59656       7.1962868      125000         50             50             50           
     57000   373.98628      0.0026338671   35.403246      49.622007      37.838174      18.749556     -8.3244412      17.719301     -8.6586881      31.213898     -21.290991      9.9229073      125000         50             50             50           
     58000   254.77638      0.0026338671  -67.084795     -84.734458     -67.621374     -48.898553      0.32916745     12.375323      25.240834      21.26432      -19.078942      2.1853779      125000         50             50             50           
     59000   275.22266      0.0026338671   45.606931      93.522589     -20.845818      64.144023      19.758528      40.625591     -42.782554      22.970821     -12.23598       10.734841      125000         50             50             50           
     60000   392.38336      0.0026338671  -61.130479     -39.091682     -73.091725     -71.20803       7.3581663     -2.9577117     -18.511622      32.749368     -14.142196      18.607171      125000         50             50             50           
     61000   266.75882      0.0026338671   43.077436      32.380438      49.975034      46.876836      9.0734498      23.263687      13.137317      22.264407     -16.61453       5.6498769      125000         50             50             50           
     62000   293.80411      0.0026338671  -43.682062     -92.528145     -3.7940286     -34.724013      17.791307      5.1145333      26.599132      24.521679     -13.623488      10.898191      125000         50             50             50           
     63000   263.01357      0.0026338671  -38.632861     -106.15647     -19.624426      9.8823163     -18.690496     -2.3636414     -16.585442      21.951818     -22.645148     -0.69333021     125000         50             50             50           
     64000   260.04151      0.0026338671   28.102255      102.76096     -9.3936636     -9.0605309      18.536023      21.282052      21.585202      21.703762     -12.339833      9.3639291      125000         50             50             50           
     65000   218.50054      0.0026338671  -37.796298     -21.033093     -27.79985      -64.555951     -37.989337     -4.4658773     -62.277605      18.236641     -17.725529      0.5111123      125000         50             50             50           
     66000   273.09467      0.0026338671   26.608429      64.349778     -15.735059      31.210569     -10.74572       47.964169     -6.937224       22.793213     -13.762471      9.030742       125000         50             50             50           
     67000   273.93659      0.0026338671  -21.588065     -25.663612     -31.125698     -7.9748848     -1.678032      -23.930327      14.602407      22.863482     -16.2267        6.636782       125000         50             50             50           
     68000   429.13494      0.0026338671  -50.147506     -43.48499      -78.922218     -28.035309      21.870376      4.358538      -43.529435      35.816753     -21.129808      14.686945      125000         50             50             50           
     69000   363.21443      0.0026338671  -26.201865     -69.336365     -0.99688228    -8.2723483     -11.872743     -10.126806      17.304967      30.31485      -17.549103      12.765747      125000         50             50             50           
     70000   273.49752      0.0026338671   38.70128       44.560787      17.204939      54.338113      24.125989     -27.261118      30.165449      22.826836     -18.493377      4.3334589      125000         50             50             50           
     71000   306.79794      0.0026338671   21.594284      11.823307      16.474268      36.485278      15.977391      1.8073823      18.69781       25.606179     -22.459788      3.1463902      125000         50             50             50           
     72000   284.76838      0.0026338671  -10.357644      47.310669      16.614314     -94.997913      14.862669      30.831924     -10.116627      23.767533     -22.521588      1.2459449      125000         50             50             50           
     73000   314.84055      0.0026338671  -18.728202      42.34603      -50.875397     -47.655238     -22.692851      28.551456     -4.7880389      26.277436     -21.116981      5.1604556      125000         50             50             50           
     74000   270.5503       0.0026338671  -34.467275      13.044214     -83.906676     -32.539364      7.6868445      20.824118      11.152595      22.580854     -20.332858      2.2479961      125000         50             50             50           
     75000   282.58859      0.0026338671   29.072729     -0.83137728     46.264583      41.784981     -3.2220795     -31.603558     -4.4133618      23.585602     -11.358663      12.226938      125000         50             50             50           
     76000   279.15431      0.0026338671   17.937082     -32.775558      21.604067      64.982736      7.5623908     -2.5071172     -1.7034289      23.298967     -15.121986      8.1769816      125000         50             50             50           
     77000   261.51325      0.0026338671  -14.275459     -43.250466     -17.9654        18.389488     -12.094473      22.598197     -19.213897      21.826597     -19.883057      1.9435404      125000         50             50             50           
     78000   289.1137       0.0026338671  -3.7093562      59.00931      -7.5883567     -62.549022     -12.825655      25.705093     -39.587054      24.130205     -15.75136       8.3788448      125000         50             50             50           
     79000   322.61605      0.0026338671   31.841491      47.526793      57.055253     -9.0575747     -6.5801572      14.524382      1.8639812      26.9264       -22.17227       4.7541303      125000         50             50             50           
     80000   330.28517      0.0026338671  -31.90788      -82.633913     -30.324873      17.235145      21.006752      9.5490691      0.70476287     27.566486     -19.148977      8.4175082      125000         50             50             50           
     81000   407.03947      0.0026338671   37.812373      9.5628844      40.196924      63.677311     -38.485419     -15.45396       64.894345      33.972605     -17.494686      16.477919      125000         50             50             50           
     82000   319.72707      0.0026338671  -47.235462     -119.47285     -52.435762      30.20223      -5.4625843      4.8271639      27.422712      26.685279     -19.621976      7.0633031      125000         50             50             50           
     83000   275.24916      0.0026338671   14.831255      19.678692     -6.5133606      31.328435     -7.0912114      15.462109      31.192899      22.973033     -12.456718      10.516315      125000         50             50             50           
     84000   313.09874      0.0026338671  -28.206496     -24.354195     -5.0422595     -55.223033     -12.339867     -41.835615      1.423494       26.132061     -21.257586      4.8744743      125000         50             50             50           
     85000   305.50075      0.0026338671   41.52382       33.276843      75.866783      15.427835     -33.598666     -57.035866     -14.670278      25.497912     -17.555122      7.9427894      125000         50             50             50           
     86000   375.25141      0.0026338671   35.719169      41.307506      47.728117      18.121885     -39.063621     -24.578041      28.896183      31.319489     -16.532931      14.786558      125000         50             50             50           
     87000   258.50884      0.0026338671   11.36496       38.488487     -20.591491      16.197883     -41.061318     -13.537829     -14.436165      21.575841     -17.752255      3.823586       125000         50             50             50           
     88000   326.66814      0.0026338671   2.7530017      0.98792754     16.979822     -9.7087442     -21.92949       9.6107304      15.213149      27.264599     -21.303966      5.960633       125000         50             50             50           
     89000   332.17031      0.0026338671  -25.721095     -40.418193      18.353776     -55.098869     -7.1054863     -1.3436786      40.452576      27.723825     -14.699347      13.024478      125000         50             50             50           
     90000   243.94052      0.0026338671  -1.5767992     -50.712915      30.97056       15.011957      4.4294694     -31.169516      2.2950203      20.35993      -19.523405      0.83652504     125000         50             50             50           
     91000   268.50519      0.0026338671   38.887825      37.171585      67.493686      11.998205      13.470347     -0.64685294     29.9411        22.410163     -14.590369      7.8197944      125000         50             50             50           
     92000   223.91141      0.0026338671   4.3120028      38.614035      4.8619245     -30.539951      5.670878       3.6194959     -8.6741147      18.688247     -19.49796      -0.80971312     125000         50             50             50           
     93000   365.97557      0.0026338671  -28.527421     -76.210016      12.12682      -21.499066     -35.563776      16.48829       26.78729       30.545302     -18.307443      12.23786       125000         50             50             50           
     94000   229.56984      0.0026338671   4.4426258     -19.607565      30.521502      2.4139403     -10.660146      11.474845      36.995621      19.160515     -13.4931        5.6674146      125000         50             50             50           
     95000   327.45479      0.0026338671  -44.133277     -41.760692     -59.904334     -30.734804      24.136843     -13.085104     -19.472831      27.330255     -15.624322      11.705932      125000         50             50             50           
     96000   298.98048      0.0026338671  -36.839223     -67.717628     -3.9427349     -38.857306      19.439735     -11.916173      22.796948      24.953713     -19.433866      5.5198464      125000         50             50             50           
     97000   234.1837       0.0026338671   4.4106735      27.966849      4.6516305     -19.386459     -20.575846     -10.428658     -16.30834       19.545599     -20.816503     -1.2709037      125000         50             50             50           
     98000   312.73059      0.0026338671   24.722737      7.5462132      38.946609      27.675389     -5.0432516     -30.525704     -19.866216      26.101334     -19.319945      6.7813886      125000         50             50             50           
     99000   235.93501      0.0026338671  -4.614009       29.593452     -2.2249374     -41.210542      38.661989      62.880792      1.8148425      19.691769     -11.144481      8.5472878      125000         50             50             50           
    100000   316.16509      0.0026338671   4.0078884     -29.203408     -13.777486      55.004559     -16.16592      -29.776365      9.325668       26.387986     -14.30453       12.083457      125000         50             50             50           
Loop time of 0.930767 on 1 procs for 100000 steps with 29 atoms

Performance: 9282.666 ns/day, 0.003 hours/ns, 107438.269 timesteps/s, 3.116 Matom-step/s
99.2% CPU use with 1 MPI tasks x no OpenMP threads

MPI task timing breakdown:
Section |  min time  |  avg time  |  max time  |%varavg| %total
---------------------------------------------------------------
Pair    | 0.18515    | 0.18515    | 0.18515    |   0.0 | 19.89
Bond    | 0.63617    | 0.63617    | 0.63617    |   0.0 | 68.35
Neigh   | 0.029636   | 0.029636   | 0.029636   |   0.0 |  3.18
Comm    | 0.007038   | 0.007038   | 0.007038   |   0.0 |  0.76
Output  | 0.0033891  | 0.0033891  | 0.0033891  |   0.0 |  0.36
Modify  | 0.057582   | 0.057582   | 0.057582   |   0.0 |  6.19
Other   |            | 0.0118     |            |       |  1.27

Nlocal:             29 ave          29 max          29 min
Histogram: 1 0 0 0 0 0 0 0 0 0
Nghost:              0 ave           0 max           0 min
Histogram: 1 0 0 0 0 0 0 0 0 0
Neighs:            328 ave         328 max         328 min
Histogram: 1 0 0 0 0 0 0 0 0 0

Total # of neighbors = 328
Ave neighs/atom = 11.310345
Ave special neighs/atom = 9.6551724
Neighbor list builds = 4416
Dangerous builds = 1
unfix           1
unfix           2
write_data      MDA_center.dat
System init for write_data ...
Generated 55 of 55 mixed pair_coeff terms from geometric mixing rule
Total wall time: 0:00:00
