Generated by ZY code

29 atoms
11 atom types
30 bonds
16 bond types
48 angles
33 angle types
68 dihedrals
45 dihedral types
16 impropers
19 improper types

-2.9615700000000000 47.0384299999999982 xlo xhi
-0.7422200000000000 49.2577799999999968 ylo yhi
-2.7769200000000001 47.2230800000000031 zlo zhi

Masses

1 12.011 # C
10 15.999 # O
11 15.999 # O
2 12.011 # C
3 12.011 # C
4 1.008 # H
5 1.008 # H
6 1.008 # H
7 1.008 # H
8 14.007 # N
9 15.999 # O

Pair Coeffs

1 0.070000 3.550000
2 0.066000 3.500000
3 0.083000 3.450000
4 0.000000 0.000000
5 0.030000 2.420000
6 0.030000 2.500000
7 0.000000 0.000000
8 0.170000 3.300000
9 0.140000 2.900000
10 0.170000 3.120000
11 0.140000 2.900000

Bond Coeffs

1 469.000000 1.400000
2 317.000000 1.510000
3 367.000000 1.080000
4 481.000000 1.340000
5 450.000000 1.364000
6 268.000000 1.529000
7 280.000000 1.510000
8 340.000000 1.090000
9 382.000000 1.448000
10 320.000000 1.410000
11 320.000000 1.410000
12 260.000000 1.520000
13 340.000000 1.088000
14 320.000000 1.410000
15 434.000000 1.010000
16 553.000000 0.945000

Angle Coeffs

1 63.000000 120.000000
2 70.000000 120.000000
3 35.000000 120.000000
4 70.000000 120.000000
5 70.000000 120.000000
6 40.000000 109.500000
7 63.000000 114.000000
8 35.000000 109.500000
9 50.000000 116.000000
10 35.000000 116.000000
11 75.000000 111.000000
12 58.350000 112.700000
13 37.500000 110.700000
14 56.200000 109.470000
15 50.000000 109.500000
16 50.000000 109.500000
17 37.500000 117.200000
18 35.000000 114.300000
19 37.500000 117.200000
20 35.000000 109.500000
21 55.000000 108.500000
22 37.500000 110.700000
23 50.000000 109.500000
24 37.500000 117.200000
25 50.000000 90.000000
26 60.000000 90.000000
27 43.600000 106.400000
28 33.000000 107.800000
29 35.000000 109.500000
30 35.000000 109.500000
31 35.000000 109.500000
32 35.000000 114.300000
33 37.500000 117.200000

Dihedral Coeffs

1 0.000000 7.250000 0.000000 0.000000
2 0.000000 7.250000 0.000000 0.000000
3 0.000000 7.250000 0.000000 0.000000
4 0.000000 7.250000 0.000000 0.000000
5 0.000000 7.250000 0.000000 0.000000
6 0.000000 0.000000 0.000000 0.000000
7 0.000000 0.000000 0.000000 0.000000
8 0.000000 0.000000 0.000000 0.000000
9 -7.582000 3.431000 3.198000 0.000000
10 0.000000 2.030000 0.000000 0.000000
11 0.000000 3.000000 0.000000 0.000000
12 0.000000 0.000000 0.000000 0.000000
13 0.000000 0.000000 0.462000 0.000000
14 0.416000 -0.128000 0.695000 0.000000
15 0.000000 0.000000 0.560000 0.000000
16 0.650000 -0.250000 0.670000 0.000000
17 0.650000 -0.250000 0.670000 0.000000
18 0.000000 0.000000 0.760000 0.000000
19 0.000000 7.250000 0.000000 0.000000
20 0.000000 0.000000 0.300000 0.000000
21 2.392000 -0.674000 0.550000 0.000000
22 1.711000 -0.500000 0.663000 0.000000
23 -0.190000 -0.417000 0.418000 0.000000
24 -0.356000 -0.174000 0.492000 0.000000
25 0.000000 0.000000 0.000000 0.000000
26 0.000000 0.000000 0.300000 0.000000
27 0.000000 0.000000 0.000000 0.000000
28 0.000000 0.000000 0.000000 0.000000
29 0.000000 0.000000 0.400000 0.000000
30 0.000000 7.250000 0.000000 0.000000
31 0.000000 7.250000 0.000000 0.000000
32 0.000000 7.250000 0.000000 0.000000
33 0.000000 0.000000 0.300000 0.000000
34 -1.013000 -0.709000 0.473000 0.000000
35 0.000000 0.000000 0.468000 0.000000
36 0.000000 0.000000 0.468000 0.000000
37 0.000000 0.000000 0.468000 0.000000
38 0.000000 0.000000 0.352000 0.000000
39 0.000000 0.000000 0.300000 0.000000
40 0.000000 0.000000 0.468000 0.000000
41 0.000000 0.000000 0.000000 0.000000
42 0.000000 0.000000 0.000000 0.000000
43 8.000000 0.000000 0.000000 0.000000
44 -0.550000 0.000000 0.000000 0.000000
45 4.319000 0.000000 0.000000 0.000000

Improper Coeffs

1 2.500000 -1 2
2 2.500000 -1 2
3 2.500000 -1 2
4 2.500000 -1 2
5 0.000000 -1 2
6 0.000000 -1 2
7 0.000000 -1 2
8 0.000000 -1 2
9 0.000000 -1 2
10 0.000000 -1 2
11 0.000000 -1 2
12 0.000000 -1 2
13 0.000000 -1 2
14 0.000000 -1 2
15 0.000000 -1 2
16 0.000000 -1 2
17 0.000000 -1 2
18 0.000000 -1 2
19 0.000000 -1 2

Atoms # full

1 1 1 -0.128900 1.000000 1.000000 0.000000
2 1 1 -0.206100 -0.388000 1.000000 0.000000
3 1 1 0.321800 -1.055000 1.000000 1.214920
4 1 1 -0.205700 -0.359000 1.000000 2.429360
5 1 1 -0.102100 1.038000 1.000000 2.418250
6 1 1 -0.048400 1.708000 1.000000 1.206770
7 1 2 -0.367600 3.126000 0.917700 1.104660
8 1 1 -0.058600 4.421000 0.762810 0.537570
9 1 1 -0.096500 5.470000 1.617300 0.854580
10 1 1 -0.209600 6.600000 1.635740 0.040900
11 1 1 0.327400 6.670000 0.800900 -1.079100
12 1 1 -0.213900 5.640000 -0.089070 -1.359930
13 1 1 -0.114400 4.508000 -0.093340 -0.561820
14 1 8 -1.241100 7.770000 0.896420 -1.970110
15 1 8 -1.244800 -2.470000 0.998430 1.214920
16 1 5 0.145600 1.512000 1.001130 -0.895840
17 1 5 0.143600 -0.913000 0.998880 -0.888980
18 1 5 0.146000 -0.873000 0.998870 3.323730
19 1 5 0.147200 1.565000 1.001130 3.304480
20 1 6 0.192800 3.239000 0.146730 1.839060
21 1 6 0.192800 3.098000 1.885520 0.650710
22 1 5 0.149900 5.411000 2.229150 1.683040
23 1 5 0.145000 7.385000 2.266420 0.264340
24 1 5 0.142500 5.719000 -0.742220 -2.156040
25 1 5 0.149200 3.726000 -0.729270 -0.779580
26 1 4 0.508600 8.503000 1.524010 -1.779840
27 1 4 0.508600 7.798000 0.333300 -2.776920
28 1 4 0.508300 -2.961000 0.997370 0.361760
29 1 4 0.508300 -2.962000 0.997330 2.067520

Bonds

1 1 2 1
2 1 3 2
3 1 4 3
4 1 5 4
5 1 6 1
6 2 7 6
7 2 8 7
8 1 9 8
9 1 10 9
10 1 11 10
11 1 12 11
12 1 13 8
13 4 14 11
14 4 15 3
15 3 16 1
16 3 17 2
17 3 18 4
18 3 19 5
19 8 20 7
20 8 21 7
21 3 22 9
22 3 23 10
23 3 24 12
24 3 25 13
25 15 26 14
26 15 27 14
27 15 28 15
28 15 29 15
29 1 6 5
30 1 13 12

Angles

1 1 1 2 3
2 1 2 3 4
3 1 3 4 5
4 1 2 1 6
5 2 1 6 7
6 6 6 7 8
7 2 7 8 9
8 1 8 9 10
9 1 9 10 11
10 1 10 11 12
11 2 7 8 13
12 4 10 11 14
13 4 2 3 15
14 3 2 1 16
15 3 1 2 17
16 3 3 4 18
17 3 4 5 19
18 8 6 7 20
19 8 6 7 21
20 3 8 9 22
21 3 9 10 23
22 3 11 12 24
23 3 8 13 25
24 10 11 14 26
25 10 11 14 27
26 10 3 15 28
27 10 3 15 29
28 8 8 7 20
29 1 8 13 12
30 3 6 1 16
31 27 26 14 27
32 1 4 5 6
33 3 6 5 19
34 3 3 2 17
35 3 12 13 25
36 2 5 6 7
37 1 9 8 13
38 3 11 10 23
39 3 13 12 24
40 28 20 7 21
41 4 12 11 14
42 27 28 15 29
43 3 10 9 22
44 8 8 7 21
45 1 11 12 13
46 1 1 6 5
47 3 5 4 18
48 4 4 3 15

Dihedrals

1 1 4 3 2 1
2 1 5 4 3 2
3 1 6 1 2 3
4 6 8 7 6 1
5 6 9 8 7 6
6 2 10 9 8 7
7 1 11 10 9 8
8 1 12 11 10 9
9 10 26 14 11 10
10 10 28 15 3 2
11 10 26 14 11 12
12 19 22 9 8 7
13 4 14 11 12 13
14 4 15 3 2 1
15 1 6 5 4 3
16 10 29 15 3 4
17 3 18 4 3 2
18 10 29 15 3 2
19 30 19 5 4 18
20 1 5 6 1 2
21 6 13 8 7 6
22 4 15 3 4 5
23 8 21 7 8 13
24 2 7 6 1 2
25 8 21 7 8 9
26 31 24 12 11 14
27 3 17 2 1 6
28 1 13 12 11 10
29 1 11 12 13 8
30 3 25 13 8 9
31 2 7 6 5 4
32 8 21 7 6 1
33 3 18 4 5 6
34 10 28 15 3 4
35 8 20 7 6 1
36 8 20 7 8 9
37 30 25 13 12 24
38 19 16 1 6 7
39 3 24 12 13 8
40 19 19 5 6 7
41 3 19 5 4 3
42 30 23 10 9 22
43 8 21 7 6 5
44 3 19 5 6 1
45 19 25 13 8 7
46 3 16 1 6 5
47 3 22 9 8 13
48 31 23 10 11 14
49 31 17 2 3 15
50 8 20 7 8 13
51 3 24 12 11 10
52 3 22 9 10 11
53 4 14 11 10 9
54 3 23 10 11 12
55 31 18 4 3 15
56 1 13 8 9 10
57 1 12 13 8 9
58 3 16 1 2 3
59 1 4 5 6 1
60 10 27 14 11 12
61 6 8 7 6 5
62 3 25 13 12 11
63 30 17 2 1 16
64 8 20 7 6 5
65 3 23 10 9 8
66 3 17 2 3 4
67 10 27 14 11 10
68 2 12 13 8 7

Impropers

1 1 6 1 5 7
2 1 8 9 13 7
3 3 11 10 12 14
4 3 3 2 4 15
5 2 1 2 6 16
6 2 2 17 3 1
7 2 4 18 3 5
8 2 5 19 4 6
9 6 7 20 6 8
10 6 7 21 6 8
11 2 9 10 22 8
12 2 10 9 11 23
13 2 12 11 13 24
14 2 13 25 12 8
15 19 14 26 27 11
16 19 15 3 28 29

