LAMMPS data file via write_data, version 2 Aug 2023, timestep = 100000, units = real

29 atoms
11 atom types
30 bonds
16 bond types
48 angles
33 angle types
68 dihedrals
45 dihedral types
16 impropers
19 improper types

-2.96157 47.03843 xlo xhi
-0.74222 49.25778 ylo yhi
-2.77692 47.22308 zlo zhi

Masses

1 12.011
2 12.011
3 12.011
4 1.008
5 1.008
6 1.008
7 1.008
8 14.007
9 15.999
10 15.999
11 15.999

Pair Coeffs # lj/cut/coul/cut

1 0.07 3.55
2 0.066 3.5
3 0.083 3.45
4 0 0
5 0.03 2.42
6 0.03 2.5
7 0 0
8 0.17 3.3
9 0.14 2.9
10 0.17 3.12
11 0.14 2.9

Bond Coeffs # harmonic

1 469 1.4
2 317 1.51
3 367 1.08
4 481 1.34
5 450 1.364
6 268 1.529
7 280 1.51
8 340 1.09
9 382 1.448
10 320 1.41
11 320 1.41
12 260 1.52
13 340 1.088
14 320 1.41
15 434 1.01
16 553 0.945

Angle Coeffs # harmonic

1 63 120
2 70 120
3 35 120
4 70 120
5 70 120
6 40 109.5
7 63 114
8 35 109.5
9 50 116
10 35 116
11 75 111
12 58.35 112.7
13 37.5 110.7
14 56.2 109.47
15 50 109.5
16 50 109.5
17 37.5 117.2
18 35 114.3
19 37.5 117.2
20 35 109.5
21 55 108.5
22 37.5 110.7
23 50 109.5
24 37.5 117.2
25 50 90
26 60 90
27 43.6 106.4
28 33 107.8
29 35 109.5
30 35 109.5
31 35 109.5
32 35 114.3
33 37.5 117.2

Dihedral Coeffs # opls

1 0 7.25 0 0
2 0 7.25 0 0
3 0 7.25 0 0
4 0 7.25 0 0
5 0 7.25 0 0
6 0 0 0 0
7 0 0 0 0
8 0 0 0 0
9 -7.582 3.431 3.198 0
10 0 2.03 0 0
11 0 3 0 0
12 0 0 0 0
13 0 0 0.462 0
14 0.416 -0.128 0.695 0
15 0 0 0.56 0
16 0.65 -0.25 0.67 0
17 0.65 -0.25 0.67 0
18 0 0 0.76 0
19 0 7.25 0 0
20 0 0 0.3 0
21 2.392 -0.674 0.55 0
22 1.711 -0.5 0.663 0
23 -0.19 -0.417 0.418 0
24 -0.356 -0.174 0.492 0
25 0 0 0 0
26 0 0 0.3 0
27 0 0 0 0
28 0 0 0 0
29 0 0 0.4 0
30 0 7.25 0 0
31 0 7.25 0 0
32 0 7.25 0 0
33 0 0 0.3 0
34 -1.013 -0.709 0.473 0
35 0 0 0.468 0
36 0 0 0.468 0
37 0 0 0.468 0
38 0 0 0.352 0
39 0 0 0.3 0
40 0 0 0.468 0
41 0 0 0 0
42 0 0 0 0
43 8 0 0 0
44 -0.55 0 0 0
45 4.319 0 0 0

Improper Coeffs # cvff

1 2.5 -1 2
2 2.5 -1 2
3 2.5 -1 2
4 2.5 -1 2
5 0 -1 2
6 0 -1 2
7 0 -1 2
8 0 -1 2
9 0 -1 2
10 0 -1 2
11 0 -1 2
12 0 -1 2
13 0 -1 2
14 0 -1 2
15 0 -1 2
16 0 -1 2
17 0 -1 2
18 0 -1 2
19 0 -1 2

Atoms # full

1 1 1 -0.1289 18.516371789046833 21.179979740303303 20.018706449795477 0 0 0
3 1 1 0.3218 17.06554529782657 20.454288126974024 21.738936399996277 0 0 0
4 1 1 -0.2057 16.845305253725755 19.284562344383144 21.02217006824602 0 0 0
5 1 1 -0.1021 17.485503627583736 19.01592550364764 19.83035747762637 0 0 0
6 1 1 -0.0484 18.39857208315031 19.998765277746774 19.348807097064338 0 0 0
7 1 2 -0.3676 19.34115317850216 19.686467429182535 18.212807449728512 0 0 0
8 1 1 -0.0586 20.876018331075894 19.678909863592235 18.657790977091945 0 0 0
19 1 5 0.1472 17.35672384899223 18.159539056126118 19.254577223430353 0 0 0
20 1 6 0.1928 19.127332754982202 20.24825554411644 17.317345012961717 0 0 0
18 1 5 0.146 16.130052678175645 18.515318761009528 21.27208828331221 0 0 0
2 1 1 -0.2061 17.936448035038474 21.447787777110722 21.26444653756024 0 0 0
22 1 5 0.1499 21.325424710311104 21.722011764728638 17.927602575811996 0 0 0
9 1 1 -0.0965 21.62815380361972 20.83715756123473 18.5060077992268 0 0 0
21 1 6 0.1928 19.13598975147826 18.634946098654794 17.99890841912867 0 0 0
25 1 5 0.1492 20.74370424145638 17.582082908387903 19.46324847019224 0 0 0
16 1 5 0.1456 19.164745443246854 21.98631683188965 19.80961321355803 0 0 0
13 1 1 -0.1144 21.36290780894761 18.552674362129647 19.40202511294287 0 0 0
17 1 5 0.1436 18.224117318577285 22.307149604387213 21.879905970585973 0 0 0
24 1 5 0.1425 23.196593762741596 17.89387269729872 20.416456951639596 0 0 0
12 1 1 -0.2139 22.683685467291067 18.679511267164195 19.88659486356296 0 0 0
23 1 5 0.145 23.459601109065055 21.800063562872698 18.735270882223976 0 0 0
10 1 1 -0.2096 22.94097347917993 20.90580269756372 18.95061107740969 0 0 0
11 1 1 0.3274 23.53164350947077 19.821931235503506 19.616537277771197 0 0 0
14 1 8 -1.2411 24.80995137326936 19.76202374199249 20.02630474633402 0 0 0
26 1 4 0.5086000000000001 25.151630639132442 20.729432081296515 20.20648141824152 0 0 0
27 1 4 0.5086000000000001 24.945680181120668 19.316993264239606 20.87569590700318 0 0 0
29 1 4 0.5083 15.597831348704222 19.99576399904507 23.129023284593274 0 0 0
15 1 8 -1.2448 16.388212787942315 20.600690801968664 22.896246321709548 0 0 0
28 1 4 0.5083 16.3266828490159 21.504402386714506 23.334050590864354 0 0 0

Velocities

1 -0.007924687532853492 0.0017262154391079405 -0.0026335210982972156
3 -0.0048010028979448265 0.006733679148057889 -0.0009782486946040012
4 0.002569150239280791 0.004107137724042479 0.011370780867357507
5 0.002230305536600995 -0.011292044141855835 0.00016860566656521522
6 -0.00228782990132681 -0.0031406449901219134 -0.0013632137732686046
7 0.003081789834294772 -0.0021835617116418246 -0.0050564162995946444
8 0.0011212811457226206 -0.001998616104488741 0.0007303210007056152
19 -0.009949615182220461 0.010901680485882385 -0.011230272841342356
20 -0.004485975948866786 -0.016565841300121904 -0.03449444278187246
18 -0.005465738900147232 0.012862039005307841 -0.010218909696091742
2 0.0035668441439151493 0.005081682226085897 0.0028696314541915213
22 -0.012449515462809202 -0.0031682258211906244 -0.01355316884365169
9 -0.001790818949560046 0.0031358978280925675 -0.002289619454233915
21 0.027103728958258164 -0.005806507983204933 -0.01887124813974831
25 0.010391178323417485 0.0262737373329415 0.012793571154607665
16 0.01698526551322758 -0.003021261291658858 -0.026459521728917988
13 -0.0032358019816681595 0.004749841502370222 -0.005317923407401423
17 0.026570386997715564 0.004657858448611049 0.0039580903632440625
24 -0.022433828612173284 0.0120620139820026 -0.012121572381077268
12 -0.0019236051026265842 -0.00021455934527995504 -0.006028095028859399
23 0.01801825504478241 0.004880342539417958 0.009386140510119531
10 -0.00507666347956578 -0.0006640288263071277 0.0055488201941424325
11 0.012519242756099962 0.00040184801983220386 0.007184397065861337
14 -0.00355793989402604 -0.0017850501022189274 0.002706210121612569
26 0.011401420221938418 -0.017799817732232708 -0.0012607809917371015
27 -0.030712487328730123 -0.0007516605656498559 0.0044670997148205036
29 0.009476977552219467 -0.0081033321025771 0.0057474222092035185
15 0.0010767838234060807 -0.003978260542965575 -0.0012931244901723856
28 0.02328464834207638 -0.013105886428158452 0.02211000113720348

Bonds

1 1 3 2
2 1 4 3
3 1 5 4
4 1 6 1
5 1 6 5
6 2 7 6
7 2 8 7
8 3 19 5
9 8 20 7
10 3 18 4
11 1 2 1
12 3 22 9
13 1 9 8
14 8 21 7
15 3 25 13
16 3 16 1
17 1 13 8
18 1 13 12
19 3 17 2
20 3 24 12
21 1 12 11
22 3 23 10
23 1 10 9
24 1 11 10
25 4 14 11
26 15 26 14
27 15 27 14
28 15 29 15
29 4 15 3
30 15 28 15

Angles

1 1 2 1 6
2 3 2 1 16
3 3 6 1 16
4 1 2 3 4
5 4 2 3 15
6 4 4 3 15
7 1 3 4 5
8 3 3 4 18
9 3 5 4 18
10 3 4 5 19
11 1 4 5 6
12 3 6 5 19
13 2 1 6 7
14 2 5 6 7
15 1 1 6 5
16 6 6 7 8
17 8 6 7 20
18 8 6 7 21
19 8 8 7 20
20 28 20 7 21
21 8 8 7 21
22 2 7 8 9
23 2 7 8 13
24 1 9 8 13
25 1 1 2 3
26 3 1 2 17
27 3 3 2 17
28 1 8 9 10
29 3 8 9 22
30 3 10 9 22
31 3 8 13 25
32 1 8 13 12
33 3 12 13 25
34 3 11 12 24
35 3 13 12 24
36 1 11 12 13
37 1 9 10 11
38 3 9 10 23
39 3 11 10 23
40 1 10 11 12
41 4 10 11 14
42 4 12 11 14
43 10 11 14 26
44 10 11 14 27
45 27 26 14 27
46 10 3 15 28
47 10 3 15 29
48 27 28 15 29

Dihedrals

1 1 6 1 2 3
2 19 16 1 6 7
3 3 16 1 6 5
4 3 16 1 2 3
5 1 4 3 2 1
6 4 15 3 2 1
7 4 15 3 4 5
8 1 5 4 3 2
9 3 18 4 3 2
10 3 18 4 5 6
11 31 18 4 3 15
12 1 6 5 4 3
13 30 19 5 4 18
14 19 19 5 6 7
15 3 19 5 4 3
16 3 19 5 6 1
17 1 4 5 6 1
18 1 5 6 1 2
19 2 7 6 1 2
20 2 7 6 5 4
21 6 8 7 6 1
22 8 21 7 8 13
23 8 21 7 8 9
24 8 21 7 6 1
25 8 20 7 6 1
26 8 20 7 8 9
27 8 21 7 6 5
28 8 20 7 8 13
29 6 8 7 6 5
30 8 20 7 6 5
31 6 9 8 7 6
32 6 13 8 7 6
33 1 13 8 9 10
34 3 17 2 1 6
35 31 17 2 3 15
36 30 17 2 1 16
37 3 17 2 3 4
38 2 10 9 8 7
39 19 22 9 8 7
40 3 22 9 8 13
41 3 22 9 10 11
42 3 25 13 8 9
43 30 25 13 12 24
44 19 25 13 8 7
45 1 12 13 8 9
46 3 25 13 12 11
47 2 12 13 8 7
48 31 24 12 11 14
49 1 13 12 11 10
50 1 11 12 13 8
51 3 24 12 13 8
52 3 24 12 11 10
53 1 11 10 9 8
54 30 23 10 9 22
55 31 23 10 11 14
56 3 23 10 11 12
57 3 23 10 9 8
58 1 12 11 10 9
59 4 14 11 12 13
60 4 14 11 10 9
61 10 26 14 11 10
62 10 26 14 11 12
63 10 27 14 11 12
64 10 27 14 11 10
65 10 28 15 3 2
66 10 29 15 3 4
67 10 29 15 3 2
68 10 28 15 3 4

Impropers

1 1 6 1 5 7
2 19 15 3 28 29
3 2 5 19 4 6
4 6 7 20 6 8
5 2 4 18 3 5
6 3 3 2 4 15
7 2 1 2 6 16
8 1 8 9 13 7
9 2 10 9 11 23
10 6 7 21 6 8
11 2 13 25 12 8
12 2 2 17 3 1
13 3 11 10 12 14
14 2 9 10 22 8
15 2 12 11 13 24
16 19 14 26 27 11
