LAMMPS data file Created by LigParGen - (Written by Leela S. Dodda)

      49 atoms
      52 bonds
      94 angles
     128 dihedrals
      28 impropers
 
      49 atom types
      52 bond types
      94 angle types
     128 dihedral types
      28 improper types
 
   -6.679080    43.320920 xlo xhi
   -6.077390    43.922610 ylo yhi
   -4.648660    45.351340 zlo zhi

Masses

       1     12.011  
       2     12.011  
       3     12.011  
       4     12.011  
       5     12.011  
       6     12.011  
       7     12.011  
       8     12.011  
       9     12.011  
      10     15.999  
      11     12.011  
      12     12.011  
      13     12.011  
      14     15.999  
      15     12.011  
      16     12.011  
      17     12.011  
      18     12.011  
      19     12.011  
      20     12.011  
      21     15.999  
      22     12.011  
      23     12.011  
      24     12.011  
      25     15.999  
      26      1.008  
      27      1.008  
      28      1.008  
      29      1.008  
      30      1.008  
      31      1.008  
      32      1.008  
      33      1.008  
      34      1.008  
      35      1.008  
      36      1.008  
      37      1.008  
      38      1.008  
      39      1.008  
      40      1.008  
      41      1.008  
      42      1.008  
      43      1.008  
      44      1.008  
      45      1.008  
      46      1.008  
      47      1.008  
      48      1.008  
      49      1.008  

Pair Coeffs 

       1      0.066  3.5000000 
       2      0.066  3.5000000 
       3      0.066  3.5000000 
       4      0.070  3.5500000 
       5      0.070  3.5500000 
       6      0.070  3.5500000 
       7      0.070  3.5500000 
       8      0.070  3.5500000 
       9      0.070  3.5500000 
      10      0.140  2.9000000 
      11      0.066  3.5000000 
      12      0.083  3.4500000 
      13      0.083  3.4500000 
      14      0.140  2.9000000 
      15      0.070  3.5500000 
      16      0.070  3.5500000 
      17      0.070  3.5500000 
      18      0.070  3.5500000 
      19      0.070  3.5500000 
      20      0.070  3.5500000 
      21      0.140  2.9000000 
      22      0.066  3.5000000 
      23      0.083  3.4500000 
      24      0.083  3.4500000 
      25      0.140  2.9000000 
      26      0.030  2.5000000 
      27      0.030  2.5000000 
      28      0.030  2.5000000 
      29      0.030  2.5000000 
      30      0.030  2.5000000 
      31      0.030  2.5000000 
      32      0.030  2.4200000 
      33      0.030  2.4200000 
      34      0.030  2.4200000 
      35      0.030  2.4200000 
      36      0.030  2.5000000 
      37      0.030  2.5000000 
      38      0.030  2.5000000 
      39      0.030  2.5000000 
      40      0.030  2.5000000 
      41      0.030  2.4200000 
      42      0.030  2.4200000 
      43      0.030  2.4200000 
      44      0.030  2.4200000 
      45      0.030  2.5000000 
      46      0.030  2.5000000 
      47      0.030  2.5000000 
      48      0.030  2.5000000 
      49      0.030  2.5000000 

Bond Coeffs 

       1   268.0000     1.5290 
       2   268.0000     1.5290 
       3   317.0000     1.5100 
       4   469.0000     1.4000 
       5   469.0000     1.4000 
       6   469.0000     1.4000 
       7   469.0000     1.4000 
       8   469.0000     1.4000 
       9   450.0000     1.3640 
      10   320.0000     1.4100 
      11   280.0000     1.5100 
      12   260.0000     1.5200 
      13   320.0000     1.4100 
      14   317.0000     1.5100 
      15   469.0000     1.4000 
      16   469.0000     1.4000 
      17   469.0000     1.4000 
      18   469.0000     1.4000 
      19   469.0000     1.4000 
      20   450.0000     1.3640 
      21   320.0000     1.4100 
      22   280.0000     1.5100 
      23   260.0000     1.5200 
      24   320.0000     1.4100 
      25   340.0000     1.0900 
      26   340.0000     1.0900 
      27   340.0000     1.0900 
      28   340.0000     1.0900 
      29   340.0000     1.0900 
      30   340.0000     1.0900 
      31   367.0000     1.0800 
      32   367.0000     1.0800 
      33   367.0000     1.0800 
      34   367.0000     1.0800 
      35   340.0000     1.0900 
      36   340.0000     1.0900 
      37   340.0000     1.0880 
      38   340.0000     1.0880 
      39   340.0000     1.0880 
      40   367.0000     1.0800 
      41   367.0000     1.0800 
      42   367.0000     1.0800 
      43   367.0000     1.0800 
      44   340.0000     1.0900 
      45   340.0000     1.0900 
      46   340.0000     1.0880 
      47   340.0000     1.0880 
      48   340.0000     1.0880 
      49   469.0000     1.4000 
      50   320.0000     1.4100 
      51   469.0000     1.4000 
      52   320.0000     1.4100 

Angle Coeffs 

       1     58.350    112.700
       2     63.000    114.000
       3     70.000    120.000
       4     63.000    120.000
       5     63.000    120.000
       6     63.000    120.000
       7     70.000    120.000
       8     70.000    120.000
       9     75.000    111.000
      10     50.000    109.500
      11     37.500    117.200
      12     37.500    117.200
      13     63.000    114.000
      14     70.000    120.000
      15     63.000    120.000
      16     63.000    120.000
      17     63.000    120.000
      18     70.000    120.000
      19     70.000    120.000
      20     75.000    111.000
      21     50.000    109.500
      22     37.500    117.200
      23     37.500    117.200
      24     37.500    110.700
      25     37.500    110.700
      26     37.500    110.700
      27     37.500    110.700
      28     37.500    110.700
      29     37.500    110.700
      30     35.000    120.000
      31     35.000    120.000
      32     35.000    120.000
      33     35.000    120.000
      34     35.000    109.500
      35     35.000    109.500
      36     35.000    114.300
      37     37.500    117.200
      38     37.500    117.200
      39     35.000    120.000
      40     35.000    120.000
      41     35.000    120.000
      42     35.000    120.000
      43     35.000    109.500
      44     35.000    109.500
      45     35.000    114.300
      46     37.500    117.200
      47     37.500    117.200
      48     63.000    120.000
      49     35.000    120.000
      50     50.000     90.000
      51     37.500    110.700
      52     33.000    107.800
      53     37.500    110.700
      54     37.500    117.200
      55     35.000    120.000
      56     35.000    114.300
      57     37.500    117.200
      58     60.000     90.000
      59     50.000     90.000
      60     63.000    120.000
      61     35.000    120.000
      62     70.000    120.000
      63     63.000    120.000
      64     37.500    117.200
      65     37.500    117.200
      66     37.500    117.200
      67     33.000    107.800
      68     63.000    114.000
      69     70.000    120.000
      70     37.500    117.200
      71     63.000    120.000
      72     37.500    117.200
      73     33.000    107.800
      74     35.000    120.000
      75     35.000    120.000
      76     60.000     90.000
      77     33.000    107.800
      78     50.000     90.000
      79     35.000    120.000
      80     37.500    110.700
      81     37.500    110.700
      82     63.000    120.000
      83     35.000    120.000
      84     63.000    120.000
      85     35.000    114.300
      86     33.000    107.800
      87     33.000    107.800
      88     33.000    107.800
      89     33.000    107.800
      90     50.000     90.000
      91     40.000    109.500
      92     37.500    117.200
      93     63.000    114.000
      94     35.000    120.000

Dihedral Coeffs  

       1      0.000      0.000      0.000      0.000 
       2      0.000      7.250      0.000      0.000 
       3      0.000      7.250      0.000      0.000 
       4      0.000      7.250      0.000      0.000 
       5      0.000      3.000      0.000      0.000 
       6      0.650     -0.250      0.670      0.000 
       7      0.000      0.000      0.000      0.000 
       8      0.000      0.000      0.000      0.000 
       9      0.000      0.000      0.000      0.000 
      10      0.000      7.250      0.000      0.000 
      11      0.000      7.250      0.000      0.000 
      12      0.000      7.250      0.000      0.000 
      13      0.000      3.000      0.000      0.000 
      14      0.650     -0.250      0.670      0.000 
      15      0.000      0.000      0.000      0.000 
      16      0.000      0.000      0.000      0.000 
      17      0.000      0.000      0.300      0.000 
      18      0.000      0.000      0.300      0.000 
      19      0.000      0.000      0.000      0.000 
      20      0.000      0.000      0.000      0.000 
      21      0.000      0.000      0.000      0.000 
      22      0.000      0.000      0.000      0.000 
      23      0.000      7.250      0.000      0.000 
      24      0.000      0.000      0.462      0.000 
      25      0.000      7.250      0.000      0.000 
      26      0.000      0.000      0.000      0.000 
      27     -0.550      0.000      0.000      0.000 
      28      0.000      0.000      0.300      0.000 
      29      0.000      7.250      0.000      0.000 
      30      0.000      0.000      0.000      0.000 
      31      0.000      7.250      0.000      0.000 
      32      0.000      0.000      0.000      0.000 
      33      0.000      7.250      0.000      0.000 
      34      0.000      7.250      0.000      0.000 
      35      0.000      0.000      0.000      0.000 
      36      0.000      7.250      0.000      0.000 
      37      0.000      7.250      0.000      0.000 
      38      0.000      0.000      0.000      0.000 
      39      0.000      0.000      0.000      0.000 
      40      0.000      0.000      0.000      0.000 
      41      0.000      7.250      0.000      0.000 
      42      0.000      7.250      0.000      0.000 
      43      0.000      0.000      0.760      0.000 
      44      0.000      0.000      0.462      0.000 
      45      0.000      3.000      0.000      0.000 
      46     -0.550      0.000      0.000      0.000 
      47      0.000      0.000      0.760      0.000 
      48      0.000      0.000      0.300      0.000 
      49      0.000      0.000      0.000      0.000 
      50      0.000      0.000      0.760      0.000 
      51      0.000      0.000      0.468      0.000 
      52      0.000      0.000      0.300      0.000 
      53      0.000      0.000      0.300      0.000 
      54      0.000      0.000      0.000      0.000 
      55      0.000      0.000      0.300      0.000 
      56      0.000      7.250      0.000      0.000 
      57      0.000      0.000      0.462      0.000 
      58      0.000      0.000      0.300      0.000 
      59      0.000      7.250      0.000      0.000 
      60      0.000      0.000      0.000      0.000 
      61      0.000      0.000      0.000      0.000 
      62      0.000      0.000      0.468      0.000 
      63      0.000      0.000      0.300      0.000 
      64      0.000      7.250      0.000      0.000 
      65      0.000      7.250      0.000      0.000 
      66      0.000      7.250      0.000      0.000 
      67      0.000      0.000      0.000      0.000 
      68      0.000      0.000      0.000      0.000 
      69      0.000      7.250      0.000      0.000 
      70      0.000      7.250      0.000      0.000 
      71      0.000      7.250      0.000      0.000 
      72      0.000      0.000      0.462      0.000 
      73      0.000      0.000      0.462      0.000 
      74      0.000      7.250      0.000      0.000 
      75      0.000      7.250      0.000      0.000 
      76      0.000      7.250      0.000      0.000 
      77      0.000      0.000      0.468      0.000 
      78      0.000      0.000      0.000      0.000 
      79      0.000      0.000      0.468      0.000 
      80      0.000      7.250      0.000      0.000 
      81      0.000      7.250      0.000      0.000 
      82      0.000      7.250      0.000      0.000 
      83      0.000      0.000      0.000      0.000 
      84      0.000      0.000      0.462      0.000 
      85      0.000      7.250      0.000      0.000 
      86      0.000      0.000      0.000      0.000 
      87      0.000      0.000      0.462      0.000 
      88      0.000      0.000      0.000      0.000 
      89      0.000      0.000      0.000      0.000 
      90      0.000      7.250      0.000      0.000 
      91      0.000      0.000      0.462      0.000 
      92      0.000      0.000      0.300      0.000 
      93      0.000      7.250      0.000      0.000 
      94      0.000      0.000      0.300      0.000 
      95      0.000      7.250      0.000      0.000 
      96      0.000      0.000      0.000      0.000 
      97      0.000      7.250      0.000      0.000 
      98      0.000      0.000      0.462      0.000 
      99      0.000      0.000      0.760      0.000 
     100      0.000      7.250      0.000      0.000 
     101      0.000      7.250      0.000      0.000 
     102      0.000      0.000      0.000      0.000 
     103      0.000      0.000      0.300      0.000 
     104      0.000      0.000      0.468      0.000 
     105      0.000      3.000      0.000      0.000 
     106      0.000      7.250      0.000      0.000 
     107      0.000      0.000      0.462      0.000 
     108      0.000      0.000      0.462      0.000 
     109      0.000      7.250      0.000      0.000 
     110      0.000      7.250      0.000      0.000 
     111      0.000      0.000      0.000      0.000 
     112      0.000      0.000      0.000      0.000 
     113      0.000      7.250      0.000      0.000 
     114      0.000      7.250      0.000      0.000 
     115      0.000      0.000      0.000      0.000 
     116      0.000      7.250      0.000      0.000 
     117      0.000      7.250      0.000      0.000 
     118      0.000      7.250      0.000      0.000 
     119      0.000      0.000      0.300      0.000 
     120      0.000      0.000      0.468      0.000 
     121      0.000      7.250      0.000      0.000 
     122      0.000      7.250      0.000      0.000 
     123      0.000      0.000      0.462      0.000 
     124      0.000      0.000      0.300      0.000 
     125      0.000      0.000      0.000      0.000 
     126      0.000      0.000      0.000      0.000 
     127      0.000      0.000      0.000      0.000 
     128      0.000      7.250      0.000      0.000 

Improper Coeffs 

       1      0.000      -1       2 
       2      2.500      -1       2 
       3      2.500      -1       2 
       4      0.000      -1       2 
       5      2.500      -1       2 
       6      2.500      -1       2 
       7      0.000      -1       2 
       8      0.000      -1       2 
       9      0.000      -1       2 
      10      0.000      -1       2 
      11      2.500      -1       2 
      12      2.500      -1       2 
      13      2.500      -1       2 
      14      2.500      -1       2 
      15      0.000      -1       2 
      16      0.000      -1       2 
      17      0.000      -1       2 
      18      2.500      -1       2 
      19      2.500      -1       2 
      20      2.500      -1       2 
      21      2.500      -1       2 
      22      0.000      -1       2 
      23      0.000      -1       2 
      24      0.000      -1       2 
      25      0.000      -1       2 
      26      0.000      -1       2 
      27      0.000      -1       2 
      28      0.000      -1       2 

Atoms 

     1      1      1 -0.22140000    1.000  1.00000  0.00000
     2      1      2 0.03100000   -0.569  1.00000  0.00000
     3      1      3 -0.22790000   -1.045  1.00000  1.49950
     4      1      4 -0.07220000   -1.045  2.28795 -0.70331
     5      1      5 -0.13270000   -1.042  2.37502 -2.10394
     6      1      6 -0.14880000   -1.561  3.47516 -2.77627
     7      1      7 0.08840000   -2.054  4.55356 -2.05129
     8      1      8 -0.14880000   -2.026  4.52656 -0.65901
     9      1      9 -0.13270000   -1.495  3.41867 -0.00014
    10      1     10 -0.32100000   -2.812  5.45687 -2.74700
    11      1     11 0.03540000   -2.400  6.71449 -2.62579
    12      1     12 -0.11620000   -2.043  8.08549 -2.60941
    13      1     13 -0.08810000   -1.686  8.87969 -3.70221
    14      1     14 -0.28030000   -2.922  8.97777 -3.26532
    15      1     15 -0.09160000   -1.059 -0.28832 -0.70351
    16      1     16 -0.11290000   -0.668 -0.56096 -2.02427
    17      1     17 -0.17610000   -1.085 -1.70679 -2.69635
    18      1     18 0.11120000   -1.915 -2.62408 -2.06107
    19      1     19 -0.17610000   -2.322 -2.38405 -0.75099
    20      1     20 -0.11290000   -1.894 -1.23297 -0.08580
    21      1     21 -0.30820000   -2.185 -3.75858 -2.77939
    22      1     22 0.06340000   -3.269 -4.43605 -2.41375
    23      1     23 -0.12200000   -4.419 -5.20730 -2.12387
    24      1     24 -0.09130000   -5.678 -5.12535 -2.72182
    25      1     25 -0.28020000   -4.875 -6.07739 -3.14122
    26      1     26 0.09000000    1.356  1.88631  0.48413
    27      1     27 0.09000000    1.356  0.97700 -1.00824
    28      1     28 0.09000000    1.356  0.13951  0.52532
    29      1     29 0.09060000   -0.702  1.89164  1.98128
    30      1     30 0.09060000   -0.640  0.14620  2.00070
    31      1     31 0.09060000   -2.114  0.96440  1.53352
    32      1     32 0.15010000   -0.641  1.59628 -2.65061
    33      1     33 0.15680000   -1.581  3.49019 -3.80883
    34      1     34 0.15680000   -2.396  5.32349 -0.11620
    35      1     35 0.15010000   -1.431  3.42739  1.03003
    36      1     36 0.09940000   -1.374  6.41495 -2.67526
    37      1     37 0.09940000   -3.419  7.00763 -2.48756
    38      1     38 0.22500000   -1.576  7.90907 -1.66313
    39      1     39 0.10640000   -1.499  8.41767 -4.64866
    40      1     40 0.10640000   -0.906  9.58926 -3.87683
    41      1     41 0.14820000   -0.053  0.10907 -2.51180
    42      1     42 0.15440000   -0.777 -1.87492 -3.66692
    43      1     43 0.15440000   -2.938 -3.05740 -0.27020
    44      1     44 0.14820000   -2.201 -1.07064  0.88589
    45      1     45 0.09840000   -3.797 -3.52672 -2.21511
    46      1     46 0.09840000   -2.721 -5.34388 -2.54958
    47      1     47 0.22090000   -4.107 -5.19711 -1.10040
    48      1     48 0.10840000   -5.902 -4.30201 -3.36811
    49      1     49 0.10840000   -6.679 -5.11529 -2.34129

Bonds 

     1      1      2      1
     2      2      3      2
     3      3      4      2
     4      4      5      4
     5      5      6      5
     6      6      7      6
     7      7      8      7
     8      8      9      4
     9      9     10      7
    10     10     11     10
    11     11     12     11
    12     12     13     12
    13     13     14     12
    14     14     15      2
    15     15     16     15
    16     16     17     16
    17     17     18     17
    18     18     19     18
    19     19     20     15
    20     20     21     18
    21     21     22     21
    22     22     23     22
    23     23     24     23
    24     24     25     23
    25     25     26      1
    26     26     27      1
    27     27     28      1
    28     28     29      3
    29     29     30      3
    30     30     31      3
    31     31     32      5
    32     32     33      6
    33     33     34      8
    34     34     35      9
    35     35     36     11
    36     36     37     11
    37     37     38     12
    38     38     39     13
    39     39     40     13
    40     40     41     16
    41     41     42     17
    42     42     43     19
    43     43     44     20
    44     44     45     22
    45     45     46     22
    46     46     47     23
    47     47     48     24
    48     48     49     24
    49     49      9      8
    50     50     14     13
    51     51     20     19
    52     52     25     24

Angles 

     1      1      1      2      3
     2      2      1      2      4
     3      3      2      4      5
     4      4      4      5      6
     5      5      5      6      7
     6      6      6      7      8
     7      7      2      4      9
     8      8      6      7     10
     9      9      7     10     11
    10     10     10     11     12
    11     11     11     12     13
    12     12     11     12     14
    13     13      1      2     15
    14     14      2     15     16
    15     15     15     16     17
    16     16     16     17     18
    17     17     17     18     19
    18     18      2     15     20
    19     19     17     18     21
    20     20     18     21     22
    21     21     21     22     23
    22     22     22     23     24
    23     23     22     23     25
    24     24      2      1     26
    25     25      2      1     27
    26     26      2      1     28
    27     27      2      3     29
    28     28      2      3     30
    29     29      2      3     31
    30     30      4      5     32
    31     31      5      6     33
    32     32      7      8     34
    33     33      4      9     35
    34     34     10     11     36
    35     35     10     11     37
    36     36     11     12     38
    37     37     12     13     39
    38     38     12     13     40
    39     39     15     16     41
    40     40     16     17     42
    41     41     18     19     43
    42     42     15     20     44
    43     43     21     22     45
    44     44     21     22     46
    45     45     22     23     47
    46     46     23     24     48
    47     47     23     24     49
    48     48     16     15     20
    49     49     20     19     43
    50     50     13     12     14
    51     51     12     11     37
    52     52     29      3     31
    53     53     23     22     45
    54     54     13     12     38
    55     55      8      9     35
    56     56     48     24     49
    57     57     14     13     40
    58     58     12     14     13
    59     59     23     24     25
    60     60     15     20     19
    61     61      6      5     32
    62     62     19     18     21
    63     63     18     19     20
    64     64     25     23     47
    65     65     25     24     49
    66     66     25     24     48
    67     67     29      3     30
    68     68      3      2     15
    69     69      8      7     10
    70     70     24     23     47
    71     71      5      4      9
    72     72     14     13     39
    73     73     36     11     37
    74     74     19     20     44
    75     75      9      8     34
    76     76     23     25     24
    77     77     45     22     46
    78     78     24     23     25
    79     79     17     16     41
    80     80     23     22     46
    81     81     12     11     36
    82     82      4      9      8
    83     83     18     17     42
    84     84      7      8      9
    85     85     39     13     40
    86     86     27      1     28
    87     87     30      3     31
    88     88     26      1     27
    89     89     26      1     28
    90     90     12     13     14
    91     91      4      2     15
    92     92     14     12     38
    93     93      3      2      4
    94     94      7      6     33

Dihedrals

     1      1      5      4      2      1 
     2      2      6      5      4      2 
     3      3      7      6      5      4 
     4      4      8      7      6      5 
     5      5     11     10      7      6 
     6      6     12     11     10      7 
     7      7     13     12     11     10 
     8      8     14     12     11     13 
     9      9     16     15      2      1 
    10     10     17     16     15      2 
    11     11     18     17     16     15 
    12     12     19     18     17     16 
    13     13     22     21     18     17 
    14     14     23     22     21     18 
    15     15     24     23     22     21 
    16     16     25     23     22     24 
    17     17     26      1      2      3 
    18     18     29      3      2      1 
    19     19     39     13     12     14 
    20     20     40     13     12     14 
    21     21     48     24     23     25 
    22     22     49     24     23     25 
    23     23     34      8      7      6 
    24     24     28      1      2     15 
    25     25     10      7      8      9 
    26     26     39     13     12     38 
    27     27     14     12     11     10 
    28     28     36     11     12     13 
    29     29     43     19     18     21 
    30     30     15      2      4      5 
    31     31     18     19     20     15 
    32     32     47     23     24     25 
    33     33      9      8      7      6 
    34     34     33      6      5     32 
    35     35     49     24     25     23 
    36     36     34      8      7     10 
    37     37     44     20     19     18 
    38     38     20     15      2      1 
    39     39     49     24     23     22 
    40     40     38     12     14     13 
    41     41      9      4      5      6 
    42     42     41     16     15      2 
    43     43     45     22     21     18 
    44     44     31      3      2     15 
    45     45     11     10      7      8 
    46     46     25     23     22     21 
    47     47     46     22     21     18 
    48     48     31      3      2      1 
    49     49     20     15      2      4 
    50     50     37     11     10      7 
    51     51     45     22     23     25 
    52     52     46     22     23     24 
    53     53     47     23     22     45 
    54     54      5      4      2      3 
    55     55     38     12     11     36 
    56     56     21     18     17     16 
    57     57     26      1      2      4 
    58     58     27      1      2      3 
    59     59     42     17     16     15 
    60     60     16     15      2      4 
    61     61     38     12     13     14 
    62     62     36     11     12     14 
    63     63     37     11     12     13 
    64     64     44     20     19     43 
    65     65     41     16     17     18 
    66     66     44     20     15      2 
    67     67     40     13     12     38 
    68     68     47     23     25     24 
    69     69     33      6      7     10 
    70     70     35      9      8      7 
    71     71      8      9      4      5 
    72     72     30      3      2      4 
    73     73     28      1      2      4 
    74     74     32      5      4      9 
    75     75     32      5      6      7 
    76     76     35      9      4      5 
    77     77     37     11     12     14 
    78     78     48     24     23     22 
    79     79     47     23     22     21 
    80     80     42     17     18     19 
    81     81      7      8      9      4 
    82     82     19     20     15     16 
    83     83     20     15      2      3 
    84     84     27      1      2     15 
    85     85     20     19     18     17 
    86     86     15      2      4      9 
    87     87     26      1      2     15 
    88     88     48     24     25     23 
    89     89      9      4      2      1 
    90     90     32      5      4      2 
    91     91     27      1      2      4 
    92     92     28      1      2      3 
    93     93     33      6      5      4 
    94     94     38     12     11     37 
    95     95      8      9      4      2 
    96     96     16     15      2      3 
    97     97     21     18     19     20 
    98     98     30      3      2     15 
    99     99     36     11     10      7 
   100    100     10      7      6      5 
   101    101     35      9      4      2 
   102    102     39     13     14     12 
   103    103     30      3      2      1 
   104    104     46     22     23     25 
   105    105     22     21     18     19 
   106    106     35      9      8     34 
   107    107     29      3      2      4 
   108    108     29      3      2     15 
   109    109     44     20     15     16 
   110    110     42     17     18     21 
   111    111     40     13     14     12 
   112    112     40     13     12     11 
   113    113     43     19     18     17 
   114    114     42     17     16     41 
   115    115      9      4      2      3 
   116    116     19     20     15      2 
   117    117     34      8      9      4 
   118    118     33      6      7      8 
   119    119     45     22     23     24 
   120    120     38     12     11     10 
   121    121     43     19     20     15 
   122    122     41     16     15     20 
   123    123     31      3      2      4 
   124    124     47     23     22     46 
   125    125     39     13     12     11 
   126    126     48     24     23     47 
   127    127     49     24     23     47 
   128    128     20     15     16     17 

Impropers

     1      1      2      1      3      4 
     2      2      4      9      2      5 
     3      3      7     10      6      8 
     4      4      2      1      3     15 
     5      5     15      2     20     16 
     6      6     18     17     19     21 
     7      7      1      2     27     26 
     8      8      1      2     28     26 
     9      9      3      2     29     30 
    10     10      3      2     29     31 
    11     11      5      4      6     32 
    12     12      6     33      5      7 
    13     13      8      9     34      7 
    14     14      9     35      4      8 
    15     15     11     12     10     36 
    16     16     11     10     12     37 
    17     17     12     11     13     38 
    18     18     16     41     17     15 
    19     19     17     42     18     16 
    20     20     19     18     43     20 
    21     21     20     19     44     15 
    22     22     22     21     45     23 
    23     23     22     21     46     23 
    24     24     23     24     47     22 
    25     25     23     25     24     22 
    26     26     12     13     14     11 