Generated by ZY code

49 atoms
11 atom types
52 bonds
16 bond types
94 angles
33 angle types
128 dihedrals
45 dihedral types
28 impropers
19 improper types

-6.6790799999999999 43.3209200000000010 xlo xhi
-6.0773900000000003 43.9226099999999988 ylo yhi
-4.6486599999999996 45.3513400000000004 zlo zhi

Masses

1 12.011 # C
10 15.999 # O
11 15.999 # O
2 12.011 # C
3 12.011 # C
4 1.008 # H
5 1.008 # H
6 1.008 # H
7 1.008 # H
8 14.007 # N
9 15.999 # O

Pair Coeffs

1 0.070000 3.550000
2 0.066000 3.500000
3 0.083000 3.450000
4 0.000000 0.000000
5 0.030000 2.420000
6 0.030000 2.500000
7 0.000000 0.000000
8 0.170000 3.300000
9 0.140000 2.900000
10 0.170000 3.120000
11 0.140000 2.900000

Bond Coeffs

1 469.000000 1.400000
2 317.000000 1.510000
3 367.000000 1.080000
4 481.000000 1.340000
5 450.000000 1.364000
6 268.000000 1.529000
7 280.000000 1.510000
8 340.000000 1.090000
9 382.000000 1.448000
10 320.000000 1.410000
11 320.000000 1.410000
12 260.000000 1.520000
13 340.000000 1.088000
14 320.000000 1.410000
15 434.000000 1.010000
16 553.000000 0.945000

Angle Coeffs

1 63.000000 120.000000
2 70.000000 120.000000
3 35.000000 120.000000
4 70.000000 120.000000
5 70.000000 120.000000
6 40.000000 109.500000
7 63.000000 114.000000
8 35.000000 109.500000
9 50.000000 116.000000
10 35.000000 116.000000
11 75.000000 111.000000
12 58.350000 112.700000
13 37.500000 110.700000
14 56.200000 109.470000
15 50.000000 109.500000
16 50.000000 109.500000
17 37.500000 117.200000
18 35.000000 114.300000
19 37.500000 117.200000
20 35.000000 109.500000
21 55.000000 108.500000
22 37.500000 110.700000
23 50.000000 109.500000
24 37.500000 117.200000
25 50.000000 90.000000
26 60.000000 90.000000
27 43.600000 106.400000
28 33.000000 107.800000
29 35.000000 109.500000
30 35.000000 109.500000
31 35.000000 109.500000
32 35.000000 114.300000
33 37.500000 117.200000

Dihedral Coeffs

1 0.000000 7.250000 0.000000 0.000000
2 0.000000 7.250000 0.000000 0.000000
3 0.000000 7.250000 0.000000 0.000000
4 0.000000 7.250000 0.000000 0.000000
5 0.000000 7.250000 0.000000 0.000000
6 0.000000 0.000000 0.000000 0.000000
7 0.000000 0.000000 0.000000 0.000000
8 0.000000 0.000000 0.000000 0.000000
9 -7.582000 3.431000 3.198000 0.000000
10 0.000000 2.030000 0.000000 0.000000
11 0.000000 3.000000 0.000000 0.000000
12 0.000000 0.000000 0.000000 0.000000
13 0.000000 0.000000 0.462000 0.000000
14 0.416000 -0.128000 0.695000 0.000000
15 0.000000 0.000000 0.560000 0.000000
16 0.650000 -0.250000 0.670000 0.000000
17 0.650000 -0.250000 0.670000 0.000000
18 0.000000 0.000000 0.760000 0.000000
19 0.000000 7.250000 0.000000 0.000000
20 0.000000 0.000000 0.300000 0.000000
21 2.392000 -0.674000 0.550000 0.000000
22 1.711000 -0.500000 0.663000 0.000000
23 -0.190000 -0.417000 0.418000 0.000000
24 -0.356000 -0.174000 0.492000 0.000000
25 0.000000 0.000000 0.000000 0.000000
26 0.000000 0.000000 0.300000 0.000000
27 0.000000 0.000000 0.000000 0.000000
28 0.000000 0.000000 0.000000 0.000000
29 0.000000 0.000000 0.400000 0.000000
30 0.000000 7.250000 0.000000 0.000000
31 0.000000 7.250000 0.000000 0.000000
32 0.000000 7.250000 0.000000 0.000000
33 0.000000 0.000000 0.300000 0.000000
34 -1.013000 -0.709000 0.473000 0.000000
35 0.000000 0.000000 0.468000 0.000000
36 0.000000 0.000000 0.468000 0.000000
37 0.000000 0.000000 0.468000 0.000000
38 0.000000 0.000000 0.352000 0.000000
39 0.000000 0.000000 0.300000 0.000000
40 0.000000 0.000000 0.468000 0.000000
41 0.000000 0.000000 0.000000 0.000000
42 0.000000 0.000000 0.000000 0.000000
43 8.000000 0.000000 0.000000 0.000000
44 -0.550000 0.000000 0.000000 0.000000
45 4.319000 0.000000 0.000000 0.000000

Improper Coeffs

1 2.500000 -1 2
2 2.500000 -1 2
3 2.500000 -1 2
4 2.500000 -1 2
5 0.000000 -1 2
6 0.000000 -1 2
7 0.000000 -1 2
8 0.000000 -1 2
9 0.000000 -1 2
10 0.000000 -1 2
11 0.000000 -1 2
12 0.000000 -1 2
13 0.000000 -1 2
14 0.000000 -1 2
15 0.000000 -1 2
16 0.000000 -1 2
17 0.000000 -1 2
18 0.000000 -1 2
19 0.000000 -1 2

Atoms # full

1 1 2 -0.221400 1.000000 1.000000 0.000000
2 1 2 0.031000 -0.569000 1.000000 0.000000
3 1 2 -0.227900 -1.045000 1.000000 1.499500
4 1 1 -0.072200 -1.045000 2.287950 -0.703310
5 1 1 -0.132700 -1.042000 2.375020 -2.103940
6 1 1 -0.148800 -1.561000 3.475160 -2.776270
7 1 1 0.088400 -2.054000 4.553560 -2.051290
8 1 1 -0.148800 -2.026000 4.526560 -0.659010
9 1 1 -0.132700 -1.495000 3.418670 -0.000140
10 1 11 -0.321000 -2.812000 5.456870 -2.747000
11 1 2 0.035400 -2.400000 6.714490 -2.625790
12 1 3 -0.116200 -2.043000 8.085490 -2.609410
13 1 3 -0.088100 -1.686000 8.879690 -3.702210
14 1 9 -0.280300 -2.922000 8.977770 -3.265320
15 1 1 -0.091600 -1.059000 -0.288320 -0.703510
16 1 1 -0.112900 -0.668000 -0.560960 -2.024270
17 1 1 -0.176100 -1.085000 -1.706790 -2.696350
18 1 1 0.111200 -1.915000 -2.624080 -2.061070
19 1 1 -0.176100 -2.322000 -2.384050 -0.750990
20 1 1 -0.112900 -1.894000 -1.232970 -0.085800
21 1 11 -0.308200 -2.185000 -3.758580 -2.779390
22 1 2 0.063400 -3.269000 -4.436050 -2.413750
23 1 3 -0.122000 -4.419000 -5.207300 -2.123870
24 1 3 -0.091300 -5.678000 -5.125350 -2.721820
25 1 9 -0.280200 -4.875000 -6.077390 -3.141220
26 1 6 0.090000 1.356000 1.886310 0.484130
27 1 6 0.090000 1.356000 0.977000 -1.008240
28 1 6 0.090000 1.356000 0.139510 0.525320
29 1 6 0.090600 -0.702000 1.891640 1.981280
30 1 6 0.090600 -0.640000 0.146200 2.000700
31 1 6 0.090600 -2.114000 0.964400 1.533520
32 1 5 0.150100 -0.641000 1.596280 -2.650610
33 1 5 0.156800 -1.581000 3.490190 -3.808830
34 1 5 0.156800 -2.396000 5.323490 -0.116200
35 1 5 0.150100 -1.431000 3.427390 1.030030
36 1 6 0.099400 -1.374000 6.414950 -2.675260
37 1 6 0.099400 -3.419000 7.007630 -2.487560
38 1 6 0.225000 -1.576000 7.909070 -1.663130
39 1 6 0.106400 -1.499000 8.417670 -4.648660
40 1 6 0.106400 -0.906000 9.589260 -3.876830
41 1 5 0.148200 -0.053000 0.109070 -2.511800
42 1 5 0.154400 -0.777000 -1.874920 -3.666920
43 1 5 0.154400 -2.938000 -3.057400 -0.270200
44 1 5 0.148200 -2.201000 -1.070640 0.885890
45 1 6 0.098400 -3.797000 -3.526720 -2.215110
46 1 6 0.098400 -2.721000 -5.343880 -2.549580
47 1 6 0.220900 -4.107000 -5.197110 -1.100400
48 1 6 0.108400 -5.902000 -4.302010 -3.368110
49 1 6 0.108400 -6.679000 -5.115290 -2.341290

Bonds

1 6 2 1
2 6 3 2
3 2 4 2
4 1 5 4
5 1 6 5
6 1 7 6
7 1 8 7
8 1 9 4
9 5 10 7
10 11 11 10
11 7 12 11
12 12 13 12
13 14 14 12
14 2 15 2
15 1 16 15
16 1 17 16
17 1 18 17
18 1 19 18
19 1 20 15
20 5 21 18
21 11 22 21
22 7 23 22
23 12 24 23
24 14 25 23
25 8 26 1
26 8 27 1
27 8 28 1
28 8 29 3
29 8 30 3
30 8 31 3
31 3 32 5
32 3 33 6
33 3 34 8
34 3 35 9
35 8 36 11
36 8 37 11
37 13 38 12
38 13 39 13
39 13 40 13
40 3 41 16
41 3 42 17
42 3 43 19
43 3 44 20
44 8 45 22
45 8 46 22
46 13 47 23
47 13 48 24
48 13 49 24
49 1 9 8
50 14 14 13
51 1 20 19
52 14 25 24

Angles

1 12 1 2 3
2 7 1 2 4
3 2 2 4 5
4 1 4 5 6
5 1 5 6 7
6 1 6 7 8
7 2 2 4 9
8 5 6 7 10
9 11 7 10 11
10 23 10 11 12
11 17 11 12 13
12 19 11 12 14
13 7 1 2 15
14 2 2 15 16
15 1 15 16 17
16 1 16 17 18
17 1 17 18 19
18 2 2 15 20
19 5 17 18 21
20 11 18 21 22
21 23 21 22 23
22 17 22 23 24
23 19 22 23 25
24 13 2 1 26
25 13 2 1 27
26 13 2 1 28
27 13 2 3 29
28 13 2 3 30
29 13 2 3 31
30 3 4 5 32
31 3 5 6 33
32 3 7 8 34
33 3 4 9 35
34 31 10 11 36
35 31 10 11 37
36 18 11 12 38
37 24 12 13 39
38 24 12 13 40
39 3 15 16 41
40 3 16 17 42
41 3 18 19 43
42 3 15 20 44
43 31 21 22 45
44 31 21 22 46
45 18 22 23 47
46 24 23 24 48
47 24 23 24 49
48 1 16 15 20
49 3 20 19 43
50 25 13 12 14
51 22 12 11 37
52 28 29 3 31
53 22 23 22 45
54 24 13 12 38
55 3 8 9 35
56 32 48 24 49
57 33 14 13 40
58 26 12 14 13
59 25 23 24 25
60 1 15 20 19
61 3 6 5 32
62 5 19 18 21
63 1 18 19 20
64 33 25 23 47
65 33 25 24 49
66 33 25 24 48
67 28 29 3 30
68 7 3 2 15
69 5 8 7 10
70 24 24 23 47
71 1 5 4 9
72 33 14 13 39
73 28 36 11 37
74 3 19 20 44
75 3 9 8 34
76 26 23 25 24
77 28 45 22 46
78 25 24 23 25
79 3 17 16 41
80 22 23 22 46
81 22 12 11 36
82 1 4 9 8
83 3 18 17 42
84 1 7 8 9
85 32 39 13 40
86 28 27 1 28
87 28 30 3 31
88 28 26 1 27
89 28 26 1 28
90 25 12 13 14
91 6 4 2 15
92 33 14 12 38
93 7 3 2 4
94 3 7 6 33

Dihedrals

1 7 5 4 2 1
2 2 6 5 4 2
3 1 7 6 5 4
4 1 8 7 6 5
5 11 11 10 7 6
6 17 12 11 10 7
7 27 13 12 11 10
8 6 14 12 11 13
9 7 16 15 2 1
10 2 17 16 15 2
11 1 18 17 16 15
12 1 19 18 17 16
13 11 22 21 18 17
14 17 23 22 21 18
15 27 24 23 22 21
16 6 25 23 22 24
17 20 26 1 2 3
18 20 29 3 2 1
19 42 39 13 12 14
20 42 40 13 12 14
21 42 48 24 23 25
22 42 49 24 23 25
23 3 34 8 7 6
24 13 28 1 2 15
25 5 10 7 8 9
26 41 39 13 12 38
27 44 14 12 11 10
28 26 36 11 12 13
29 32 43 19 18 21
30 6 15 2 4 5
31 1 18 19 20 15
32 42 47 23 24 25
33 1 9 8 7 6
34 30 33 6 5 32
35 28 49 24 25 23
36 32 34 8 7 10
37 3 44 20 19 18
38 7 20 15 2 1
39 25 49 24 23 22
40 28 38 12 14 13
41 1 9 4 5 6
42 19 41 16 15 2
43 18 45 22 21 18
44 13 31 3 2 15
45 11 11 10 7 8
46 44 25 23 22 21
47 18 46 22 21 18
48 20 31 3 2 1
49 6 20 15 2 4
50 18 37 11 10 7
51 37 45 22 23 25
52 26 46 22 23 24
53 39 47 23 22 45
54 7 5 4 2 3
55 39 38 12 11 36
56 5 21 18 17 16
57 13 26 1 2 4
58 20 27 1 2 3
59 3 42 17 16 15
60 6 16 15 2 4
61 42 38 12 13 14
62 37 36 11 12 14
63 26 37 11 12 13
64 30 44 20 19 43
65 3 41 16 17 18
66 19 44 20 15 2
67 41 40 13 12 38
68 28 47 23 25 24
69 32 33 6 7 10
70 3 35 9 8 7
71 1 8 9 4 5
72 13 30 3 2 4
73 13 28 1 2 4
74 3 32 5 4 9
75 3 32 5 6 7
76 3 35 9 4 5
77 37 37 11 12 14
78 25 48 24 23 22
79 40 47 23 22 21
80 3 42 17 18 19
81 1 7 8 9 4
82 1 19 20 15 16
83 7 20 15 2 3
84 13 27 1 2 15
85 1 20 19 18 17
86 6 15 2 4 9
87 13 26 1 2 15
88 28 48 24 25 23
89 7 9 4 2 1
90 19 32 5 4 2
91 13 27 1 2 4
92 20 28 1 2 3
93 3 33 6 5 4
94 39 38 12 11 37
95 2 8 9 4 2
96 7 16 15 2 3
97 5 21 18 19 20
98 13 30 3 2 15
99 18 36 11 10 7
100 5 10 7 6 5
101 19 35 9 4 2
102 28 39 13 14 12
103 20 30 3 2 1
104 37 46 22 23 25
105 11 22 21 18 19
106 30 35 9 8 34
107 13 29 3 2 4
108 13 29 3 2 15
109 3 44 20 15 16
110 32 42 17 18 21
111 28 40 13 14 12
112 25 40 13 12 11
113 3 43 19 18 17
114 30 42 17 16 41
115 7 9 4 2 3
116 2 19 20 15 2
117 3 34 8 9 4
118 3 33 6 7 8
119 26 45 22 23 24
120 40 38 12 11 10
121 3 43 19 20 15
122 3 41 16 15 20
123 13 31 3 2 4
124 39 47 23 22 46
125 25 39 13 12 11
126 41 48 24 23 47
127 41 49 24 23 47
128 1 20 15 16 17

Impropers

1 7 2 1 3 4
2 1 4 9 2 5
3 4 7 10 6 8
4 7 2 1 3 15
5 1 15 2 20 16
6 4 18 17 19 21
7 9 1 2 27 26
8 9 1 2 28 26
9 9 3 2 29 30
10 9 3 2 29 31
11 2 5 4 6 32
12 2 6 33 5 7
13 2 8 9 34 7
14 2 9 35 4 8
15 13 11 12 10 36
16 13 11 10 12 37
17 14 12 11 13 38
18 2 16 41 17 15
19 2 17 42 18 16
20 2 19 18 43 20
21 2 20 19 44 15
22 13 22 21 45 23
23 13 22 21 46 23
24 14 23 24 47 22
25 15 23 25 24 22
26 15 12 13 14 11
27 15 12 13 14 11
28 15 23 25 24 22

