49
 Atoms. Timestep: 0
2 1 1 0
2 -0.569 1 0
2 -1.045 1 1.4995
1 -1.045 2.28795 -0.70331
1 -1.042 2.37502 -2.10394
1 -1.561 3.47516 -2.77627
1 -2.054 4.55356 -2.05129
1 -2.026 4.52656 -0.65901
1 -1.495 3.41867 -0.00014
11 -2.812 5.45687 -2.747
2 -2.4 6.71449 -2.62579
3 -2.043 8.08549 -2.60941
3 -1.686 8.87969 -3.70221
9 -2.922 8.97777 -3.26532
1 -1.059 -0.28832 -0.70351
1 -0.668 -0.56096 -2.02427
1 -1.085 -1.70679 -2.69635
1 -1.915 -2.62408 -2.06107
1 -2.322 -2.38405 -0.75099
1 -1.894 -1.23297 -0.0858
11 -2.185 -3.75858 -2.77939
2 -3.269 -4.43605 -2.41375
3 -4.419 -5.2073 -2.12387
3 -5.678 -5.12535 -2.72182
9 -4.875 -6.07739 -3.14122
6 1.356 1.88631 0.48413
6 1.356 0.977 -1.00824
6 1.356 0.13951 0.52532
6 -0.702 1.89164 1.98128
6 -0.64 0.1462 2.0007
6 -2.114 0.9644 1.53352
5 -0.641 1.59628 -2.65061
5 -1.581 3.49019 -3.80883
5 -2.396 5.32349 -0.1162
5 -1.431 3.42739 1.03003
6 -1.374 6.41495 -2.67526
6 -3.419 7.00763 -2.48756
6 -1.576 7.90907 -1.66313
6 -1.499 8.41767 -4.64866
6 -0.906 9.58926 -3.87683
5 -0.053 0.10907 -2.5118
5 -0.777 -1.87492 -3.66692
5 -2.938 -3.0574 -0.2702
5 -2.201 -1.07064 0.88589
6 -3.797 -3.52672 -2.21511
6 -2.721 -5.34388 -2.54958
6 -4.107 -5.19711 -1.1004
6 -5.902 -4.30201 -3.36811
6 -6.679 -5.11529 -2.34129
49
 Atoms. Timestep: 1000
2 23.6515 19.9511 21.1683
2 22.2504 19.8675 21.7293
2 22.4555 19.6654 23.247
1 21.73 21.2094 21.2158
1 21.4051 21.3563 19.8689
1 20.9352 22.5678 19.36
1 20.8046 23.6743 20.2005
1 20.8843 23.4635 21.6091
1 21.3802 22.2658 22.1077
11 20.8398 24.9354 19.7034
2 19.5526 25.4556 19.6226
3 19.0768 25.211 18.2643
3 17.9296 24.2707 18.1146
9 17.8885 25.6411 17.8174
1 21.4187 18.6407 21.2548
1 22.0266 17.4431 20.7542
1 21.2156 16.4302 20.1954
1 19.8401 16.5707 20.1793
1 19.2548 17.7146 20.7185
1 20.0026 18.7436 21.2631
11 19.1198 15.5724 19.5871
2 18.1527 15.9075 18.5978
3 17.3974 14.6435 18.3336
3 15.9865 14.1628 18.7956
9 16.2528 14.6088 17.4752
6 24.1742 20.8546 21.5052
6 23.6183 19.9615 20.0763
6 24.3345 19.1192 21.3828
6 23.1519 20.4009 23.6261
6 22.9032 18.6867 23.5227
6 21.5043 19.7928 23.8055
5 21.483 20.4818 19.1955
5 20.7323 22.572 18.2777
5 20.7648 24.282 22.3264
5 21.5299 22.1691 23.1713
6 19.683 26.5082 19.876
6 18.9137 25.075 20.444
6 19.9178 25.0027 17.6449
6 17.4338 23.8418 18.9638
6 18.0759 23.4448 17.3899
5 23.1245 17.4169 20.7356
5 21.6701 15.4957 19.8381
5 18.1123 17.7612 20.7137
5 19.4587 19.6813 21.5369
6 18.6917 16.1836 17.6638
6 17.4738 16.7711 18.7928
6 18.0989 13.8847 18.3545
6 15.4306 14.7825 19.5164
6 15.7616 13.1595 18.9701
49
 Atoms. Timestep: 2000
2 23.5341 19.5086 21.4558
2 22.1062 19.8101 21.7824
2 21.7783 19.5677 23.2957
1 21.8915 21.2255 21.2681
1 22.042 21.4967 19.8746
1 21.8373 22.7882 19.3792
1 21.3641 23.7933 20.2413
1 21.0502 23.4549 21.578
1 21.4346 22.2311 22.1577
11 20.9522 25.0137 19.6966
2 19.5637 25.3341 19.7949
3 18.9734 24.6448 18.6209
3 18.7998 23.1657 18.592
9 17.7027 24.0976 18.7282
1 21.1336 18.963 20.9508
1 21.5745 17.6817 20.5882
1 20.7936 16.7864 19.7905
1 19.4838 17.2212 19.3263
1 18.9849 18.4436 19.8536
1 19.7626 19.2342 20.726
11 18.7526 16.4165 18.457
2 17.3617 16.3671 18.7169
3 16.8975 15.1288 18.1933
3 17.5099 13.8155 18.6355
9 16.2505 14.2088 19.0806
6 24.2362 20.3329 21.7107
6 23.7212 19.3478 20.3625
6 23.9244 18.6051 21.9513
6 22.4425 20.1836 23.9209
6 21.9848 18.5291 23.542
6 20.724 19.7779 23.52
5 22.3867 20.7472 19.1621
5 22.042 22.945 18.3438
5 20.5744 24.2381 22.1449
5 21.2416 22.043 23.192
6 19.5587 26.4519 19.7186
6 19.0427 25.0614 20.7292
6 19.2835 24.9892 17.6393
6 18.7781 22.5374 19.5305
6 18.8845 22.6073 17.6439
5 22.5597 17.3499 20.7645
5 21.2985 15.8885 19.4287
5 17.987 18.6804 19.7307
5 19.3982 20.1592 21.192
6 16.771 17.2386 18.3682
6 17.1219 16.471 19.809
6 16.7466 15.2101 17.1448
6 18.4406 13.8829 19.217
6 17.6473 13.0152 17.8667
49
 Atoms. Timestep: 3000
2 22.1736 19.805 22.5739
2 20.8246 19.9316 21.885
2 19.8112 20.3825 22.9748
1 20.8786 21.0575 20.8541
1 19.8601 21.11 19.8798
1 19.6055 22.25 19.1242
1 20.3156 23.4326 19.3198
1 21.3204 23.4652 20.2998
1 21.5641 22.2869 21.076
11 19.9181 24.5047 18.5529
2 20.5156 25.8097 18.7534
3 19.9059 26.487 19.9646
3 20.8551 27.4487 20.6425
9 19.6291 27.8909 20.1087
1 20.5135 18.6196 21.0823
1 21.0617 18.4078 19.8145
1 20.8064 17.2706 19.0964
1 20.1409 16.2178 19.7416
1 19.5755 16.4726 20.9874
1 19.7016 17.6632 21.7144
11 19.7885 15.2069 18.922
2 18.4373 14.868 18.8728
3 18.1951 13.7907 17.9156
3 18.313 12.3605 18.4354
9 17.0972 12.9857 17.9099
6 22.5046 20.6946 23.1588
6 22.9903 19.6549 21.8415
6 22.1327 19.006 23.317
6 20.0247 21.4123 23.2883
6 19.9112 19.7738 23.8258
6 18.8157 20.3014 22.6353
5 19.1199 20.3314 19.7393
5 18.748 22.2972 18.4657
5 21.9099 24.3474 20.3564
5 22.206 22.2949 21.8902
6 20.1193 26.3951 17.904
6 21.6209 25.8113 18.6743
6 19.4895 25.7798 20.6579
6 21.8071 27.6212 20.1899
6 20.9181 27.3687 21.7021
5 21.7123 19.1585 19.3723
5 20.9335 17.2072 18
5 18.8334 15.8259 21.4372
5 19.1316 17.6899 22.61
6 17.7689 15.6933 18.7102
6 17.9735 14.5655 19.8041
6 18.7449 13.9257 16.9512
6 18.3002 12.1426 19.5449
6 18.7684 11.6462 17.7717
49
 Atoms. Timestep: 4000
2 21.9262 19.6498 22.7107
2 20.4394 19.8872 22.4815
2 19.7316 19.8908 23.8985
1 20.1394 21.1847 21.7292
1 18.8198 21.4488 21.3103
1 18.5746 22.6007 20.4424
1 19.5859 23.4769 20.0053
1 20.8497 23.2685 20.6387
1 21.1174 22.189 21.471
11 19.2502 24.4434 19.1028
2 20.318 24.9495 18.2408
3 20.946 26.2259 18.7621
3 22.321 26.061 19.404
9 22.1233 26.8292 18.2374
1 20.0433 18.7509 21.5276
1 20.2095 18.8992 20.2072
1 19.7409 17.9959 19.2182
1 19.1173 16.7541 19.6376
1 19.0339 16.5545 21.0372
1 19.5768 17.4779 21.9606
11 18.6509 15.8939 18.663
2 18.6007 14.4667 18.9958
3 18.8473 13.6557 17.754
3 19.3784 14.1034 16.4601
9 20.2279 13.4105 17.4098
6 22.5171 20.4137 23.1614
6 22.2743 19.488 21.7352
6 22.0764 18.7058 23.2547
6 19.8474 20.8765 24.3644
6 20.0307 19.2194 24.6897
6 18.6814 19.7492 23.7516
5 18.1259 20.6665 21.4749
5 17.5955 22.7626 20.0325
5 21.7132 23.8249 20.4435
5 22.1315 22.0288 21.8778
6 20.0084 25.1846 17.2436
6 20.9776 24.1599 17.9937
6 20.2896 26.8724 19.3095
6 22.9199 25.2251 19.3716
6 22.4525 26.5656 20.3413
5 20.7337 19.7945 19.8249
5 19.995 18.2989 18.1698
5 18.6238 15.6531 21.501
5 19.4867 17.2432 23.0311
6 17.6102 14.4148 19.4697
6 19.4158 14.1894 19.6144
6 18.1924 12.7823 17.7851
6 19.4171 15.207 16.4505
6 19.0176 13.5797 15.6093
49
 Atoms. Timestep: 5000
2 21.4567 19.8323 23.1111
2 20.0921 19.9677 22.4438
2 19.0349 19.9761 23.5388
1 19.8682 21.3146 21.6303
1 18.6544 21.6903 21.0092
1 18.4615 22.9589 20.4389
1 19.4913 23.8653 20.499
1 20.7378 23.4533 20.9749
1 20.9309 22.223 21.5382
11 19.2545 25.1061 19.9557
2 20.05 25.2473 18.7384
3 21.3179 26.0108 18.9536
3 22.6473 25.329 18.7456
9 22.2093 26.2923 17.8293
1 19.963 18.8163 21.4927
1 20.3056 18.9101 20.1072
1 20.307 17.7883 19.2192
1 19.9278 16.531 19.759
1 19.6336 16.3978 21.1239
1 19.6581 17.4876 22.0143
11 20.1283 15.3547 19.0027
2 19.4997 15.3029 17.6968
3 19.3971 13.8993 17.2721
3 18.4741 12.9391 17.8219
9 18.2727 13.4704 16.5042
6 21.6572 20.5994 23.9106
6 22.3633 19.8308 22.485
6 21.5144 18.8054 23.6481
6 19.2064 20.8404 24.1273
6 18.9582 19.0654 24.1869
6 18.0489 20.1764 23.1583
5 17.8066 21.0381 20.881
5 17.5197 23.2872 20.0551
5 21.513 24.1665 20.8677
5 21.8277 21.9303 21.983
6 19.4659 25.8326 18.0094
6 20.3015 24.3164 18.2107
6 21.3634 26.787 19.774
6 22.6311 24.323 18.3787
6 23.4749 25.5946 19.3788
5 20.5557 19.8527 19.5826
5 20.4356 17.7735 18.2003
5 19.4013 15.4173 21.4897
5 19.4472 17.3155 23.1103
6 20.1541 15.853 16.9647
6 18.5032 15.7071 17.7062
6 20.5028 13.5845 17.0839
6 17.9361 13.2289 18.64
6 18.6423 11.8285 17.7764
49
 Atoms. Timestep: 6000
2 21.1902 20.0822 23.4568
2 19.8774 19.9633 22.6277
2 18.7408 19.7868 23.7355
1 19.619 21.2242 21.6997
1 19.0201 22.3906 22.2422
1 19.0004 23.6332 21.5346
1 19.6076 23.7189 20.266
1 20.1521 22.5793 19.6718
1 20.2019 21.397 20.4056
11 19.4765 24.9425 19.6587
2 20.2397 25.2748 18.4608
3 21.6872 25.4734 18.7587
3 22.6714 24.7299 17.8976
9 22.5127 26.1298 17.8751
1 19.7517 18.7477 21.6336
1 18.6362 18.5564 20.7135
1 18.5743 17.3801 20.0288
1 19.5969 16.381 20.194
1 20.6952 16.5829 21.0588
1 20.7309 17.7693 21.8065
11 19.477 15.1708 19.4738
2 20.2215 15.197 18.2531
3 19.613 14.0965 17.4324
3 18.3968 14.3275 16.6239
9 19.7703 14.3865 16.0789
6 21.0601 21.0158 23.9319
6 22.0645 20.3407 22.8144
6 21.4186 19.313 24.2417
6 18.6645 20.6409 24.3761
6 18.9002 18.8769 24.3447
6 17.7469 19.7203 23.2751
5 18.7486 22.4368 23.2807
5 18.6164 24.5422 22.0382
5 20.6522 22.6766 18.703
5 20.715 20.5988 19.8666
6 19.7788 26.1986 18.1626
6 19.9792 24.516 17.7024
6 21.9073 25.5061 19.8283
6 22.3444 24.2103 16.9429
6 23.5903 24.2866 18.3028
5 17.9425 19.4195 20.5088
5 17.7038 17.2208 19.3555
5 21.4729 15.9029 21.1353
5 21.5823 17.8728 22.4829
6 21.2858 15.0233 18.3747
6 20.0475 16.1725 17.8132
6 19.7232 13.0997 17.8362
6 17.9149 15.2927 16.7643
6 17.6728 13.5586 16.3433
49
 Atoms. Timestep: 7000
2 20.8691 20.0386 23.5248
2 19.8382 19.8863 22.379
2 18.4218 19.6579 23.0335
1 19.8771 21.1371 21.5284
1 18.7647 22.0285 21.4925
1 18.7778 23.2198 20.6778
1 19.8877 23.5423 19.9122
1 21.0105 22.6691 19.9139
1 20.9657 21.4908 20.7113
11 19.7798 24.7363 19.3164
2 20.8917 25.3339 18.7158
3 21.6612 26.2949 19.6297
3 23.0145 26.8836 19.1362
9 21.8197 27.5509 19.0709
1 19.9543 18.6637 21.4552
1 19.0391 18.6194 20.372
1 19.1722 17.5541 19.4448
1 20.0185 16.4634 19.6766
1 20.9546 16.5578 20.7734
1 20.9467 17.711 21.6677
11 20.1259 15.306 18.8605
2 19.1218 15.1178 17.8154
3 19.0817 13.6593 17.2563
3 18.2395 12.6277 17.9884
9 17.7961 13.1605 16.7661
6 20.659 20.8968 24.2063
6 21.9232 19.991 23.1935
6 20.7851 19.129 24.1714
6 18.2301 20.4854 23.6993
6 18.3529 18.8664 23.7301
6 17.5182 19.5244 22.421
5 17.8841 21.8623 22.1195
5 17.8883 23.8252 20.6864
5 22.006 22.7896 19.4043
5 21.8023 20.8504 20.6144
6 20.5211 25.967 17.9229
6 21.4683 24.605 18.1782
6 21.4224 26.2944 20.6732
6 23.4515 26.486 18.239
6 23.8067 27.2049 19.8744
5 18.4994 19.4773 20.2391
5 18.4675 17.5384 18.6094
5 21.5952 15.6883 20.9002
5 21.6339 17.7047 22.5305
6 19.1279 15.8235 17.06
6 18.1778 15.2631 18.3098
6 19.948 13.328 16.7712
6 17.7176 12.8426 18.9099
6 18.6514 11.6368 17.8911
49
 Atoms. Timestep: 8000
2 21.4422 19.6222 23.0186
2 20.0785 19.8048 22.2643
2 19.0876 19.7715 23.4758
1 20.1803 21.1661 21.4452
1 19.1307 22.0972 21.4495
1 19.1575 23.2285 20.6138
1 20.2741 23.4509 19.8417
1 21.3432 22.5406 19.7994
1 21.2495 21.3668 20.5564
11 20.1499 24.5303 19.0365
2 21.3949 25.246 18.8486
3 21.4318 26.4618 19.7648
3 22.1548 27.7089 19.3458
9 20.7568 27.6671 19.3951
1 19.7691 18.6378 21.3619
1 19.357 18.8071 20.0479
1 19.2215 17.6775 19.1888
1 19.5163 16.3885 19.6644
1 19.9212 16.2519 20.9931
1 20.0214 17.3702 21.8453
11 19.3213 15.236 18.9365
2 19.1456 15.2744 17.5464
3 19.0459 13.7671 17.0989
3 19.0386 12.596 18.0614
9 17.789 13.1425 17.4156
6 21.8026 20.5531 23.4921
6 22.2743 19.3581 22.3793
6 21.3127 18.9272 23.7832
6 19.2652 20.6194 24.1659
6 19.1692 18.8744 24.1185
6 18.064 19.9455 23.1903
5 18.2654 22.0647 22.0832
5 18.3264 23.9134 20.5188
5 22.214 22.6511 19.0754
5 22.1217 20.7155 20.484
6 21.3081 25.6513 17.8187
6 22.297 24.6963 18.7353
6 21.7519 26.081 20.7133
6 22.5633 27.7492 18.3467
6 22.6627 28.268 20.0593
5 19.0756 19.7363 19.651
5 18.7122 17.9006 18.261
5 20.2366 15.3031 21.391
5 20.3659 17.2585 22.8723
6 19.9096 15.8395 17.034
6 18.2621 15.8088 17.3419
6 19.5529 13.557 16.1742
6 19.2077 12.9273 19.0826
6 19.3776 11.5676 17.7618
49
 Atoms. Timestep: 9000
2 21.024 20.1361 23.0717
2 19.8318 20.0254 22.0711
2 18.5347 19.9521 22.896
1 19.9145 21.3056 21.1863
1 18.7678 22.0637 20.9255
1 18.8077 23.2235 20.1739
1 19.9854 23.6196 19.5187
1 21.0884 22.8002 19.5525
1 21.0637 21.6789 20.4237
11 19.9436 24.8199 18.8403
2 21.2173 25.4745 18.6643
3 22.017 25.6828 19.9423
3 22.7948 26.9898 20.1058
9 21.5475 26.742 20.7533
1 19.8068 18.7978 21.1396
1 19.1506 18.8747 19.8987
1 19.255 17.8323 18.9947
1 19.8194 16.5927 19.4242
1 20.3781 16.4958 20.646
1 20.3754 17.5654 21.5256
11 19.9245 15.5317 18.5181
2 18.6628 15.0687 18.0845
3 19.0154 13.5854 17.7058
3 19.0177 12.4424 18.6513
9 17.9224 12.751 17.8999
6 21.0265 21.0923 23.5706
6 22.0107 20.004 22.5965
6 20.9435 19.3385 23.7725
6 18.4506 20.8144 23.5312
6 18.5153 19.0588 23.4338
6 17.6693 19.9299 22.291
5 17.7846 21.7866 21.3585
5 17.9141 23.8422 20.2059
5 21.8503 23.1086 18.9643
5 21.8645 20.9863 20.316
6 21.0178 26.3996 18.3126
6 21.8055 24.9854 17.8772
6 22.6406 24.8395 20.1912
6 22.9106 27.7364 19.3039
6 23.666 26.997 20.7982
5 18.6431 19.7135 19.497
5 18.9625 17.814 18.0023
5 20.9856 15.5916 20.8828
5 20.7652 17.5307 22.5287
6 18.3269 15.5967 17.266
6 17.9655 14.9609 18.9066
6 19.6893 13.3635 16.8504
6 19.0814 12.8393 19.6843
6 19.7256 11.6602 18.3255
49
 Atoms. Timestep: 10000
2 20.708 20.0581 23.8137
2 19.5737 20.0431 22.7697
2 18.2638 20.0519 23.5645
1 19.7187 21.2032 21.7669
1 18.8206 22.2759 21.9023
1 18.7822 23.3261 20.9687
1 19.8181 23.4346 20.0325
1 20.8657 22.4906 20.0913
1 20.8343 21.3507 20.899
11 19.6765 24.5361 19.2449
2 20.6238 24.8575 18.2344
3 21.8919 25.3654 18.8272
3 23.234 25.5073 18.1053
9 22.3933 26.6222 18.3942
1 19.535 18.7751 21.8612
1 18.5672 18.5363 20.8498
1 18.4824 17.4676 20.0256
1 19.5234 16.4749 20.1696
1 20.3954 16.5009 21.2679
1 20.4606 17.6975 22.0474
11 19.7081 15.4369 19.2849
2 19.2561 15.4954 18.0351
3 19.8622 14.3809 17.211
3 19.0195 13.397 16.444
9 19.5126 14.5477 15.8799
6 20.683 20.976 24.3291
6 21.6261 19.9528 23.3566
6 20.6465 19.2651 24.5121
6 18.1404 20.9446 24.2208
6 18.1212 19.0862 24.1364
6 17.3668 20.1019 22.8859
5 18.0382 22.2931 22.5858
5 17.9092 23.9997 20.9448
5 21.6508 22.5457 19.3911
5 21.6919 20.7437 21.0574
6 20.2232 25.6538 17.5244
6 20.8781 23.9887 17.5772
6 22.0118 25.1153 19.8835
6 23.347 25.5038 17.0322
6 24.1739 25.4529 18.7086
5 17.8155 19.2724 20.7145
5 17.7244 17.4478 19.2714
5 21.089 15.6224 21.2977
5 21.2587 17.6909 22.7705
6 19.5318 16.429 17.5534
6 18.1694 15.4787 17.9778
6 20.9031 14.1059 17.494
6 17.9945 13.3253 16.8235
6 19.5353 12.4757 16.2696
49
 Atoms. Timestep: 11000
2 20.7876 19.9935 23.7598
2 19.5875 19.9969 22.6902
2 18.2804 19.6817 23.5231
1 19.5283 21.3477 21.8556
1 18.5279 22.4003 21.9946
1 18.6317 23.553 21.1432
1 19.6541 23.6703 20.1886
1 20.6243 22.6012 20.0484
1 20.5504 21.4805 20.8973
11 19.6649 24.7719 19.3736
2 20.7376 24.8802 18.4764
3 22.0174 25.2579 19.2084
3 23.2128 25.1147 18.3203
9 22.7432 26.4122 18.6906
1 19.6832 18.8353 21.6398
1 18.7626 18.8747 20.5679
1 18.7337 17.9094 19.5719
1 19.6905 16.8604 19.6245
1 20.6468 16.8362 20.677
1 20.565 17.7712 21.6942
11 19.9454 15.8769 18.7677
2 18.8512 15.3408 17.9936
3 19.411 14.4423 16.914
3 19.9288 13.0422 17.2923
9 18.7293 13.2916 16.5369
6 20.6011 20.632 24.62
6 21.6682 20.0999 23.1942
6 20.745 18.9909 24.2539
6 17.9921 20.3853 24.3197
6 18.3543 18.6845 23.9768
6 17.4085 19.5196 22.8797
5 17.7084 22.4019 22.6813
5 18.0271 24.463 21.2049
5 21.422 22.5706 19.2935
5 21.2474 20.5997 20.7303
6 20.5711 25.6093 17.6484
6 20.7813 23.9746 17.8764
6 22.0799 25.0924 20.2869
6 23.1554 24.9432 17.2524
6 24.1997 24.9098 18.6469
5 18.1403 19.7513 20.5067
5 17.9455 18.0834 18.8808
5 21.3071 15.9504 20.7449
5 21.2492 17.6302 22.5482
6 18.2582 16.1828 17.534
6 18.1446 14.846 18.5777
6 20.1012 14.9848 16.2924
6 19.8291 12.6855 18.2671
6 20.7872 12.7191 16.738
49
 Atoms. Timestep: 12000
2 21.304 20.1869 23.025
2 20.0307 20.0309 22.0929
2 18.8434 20.1025 23.0928
1 19.988 21.2137 21.1173
1 19.4201 22.4506 21.5484
1 19.4629 23.6056 20.7853
1 20.0292 23.6117 19.517
1 20.4806 22.3921 18.9617
1 20.5426 21.2491 19.8145
11 19.8822 24.7866 18.8366
2 21.0538 25.5763 18.674
3 21.1204 26.4967 19.8257
3 21.7808 25.9997 21.153
9 22.417 26.8349 20.2604
1 20.0044 18.7912 21.1945
1 18.8177 18.5813 20.443
1 18.7033 17.4548 19.5771
1 19.7499 16.4634 19.5994
1 20.8385 16.7098 20.4024
1 21.0389 17.8399 21.2092
11 19.7885 15.3226 18.9006
2 18.482 14.9796 18.3127
3 18.8592 13.9551 17.3118
3 19.1772 12.5979 17.8732
9 18.043 12.8448 17.155
6 21.4383 21.1097 23.5898
6 22.2365 20.096 22.4288
6 21.4068 19.2806 23.7081
6 18.8407 20.9185 23.8068
6 18.7297 19.1107 23.6434
6 17.9076 20.112 22.5929
5 19.1123 22.5005 22.567
5 19.0943 24.5044 21.226
5 20.8479 22.3342 17.9243
5 20.904 20.3534 19.3576
6 21.0075 26.1898 17.7849
6 21.9115 24.8532 18.4935
6 20.4819 27.3212 19.6105
6 22.0872 24.9589 21.2175
6 21.4222 26.5094 22.0401
5 18.0173 19.2863 20.3304
5 17.7874 17.4149 19.0086
5 21.5977 15.9692 20.412
5 21.9056 17.8209 21.8685
6 18.1334 15.7172 17.6358
6 17.6954 14.5167 18.9432
6 19.4263 14.3209 16.4791
6 19.1721 12.6087 18.9826
6 20.0071 12.103 17.3809
49
 Atoms. Timestep: 13000
2 21.6436 20.1769 23.0195
2 20.2804 20.1231 22.1939
2 19.158 20.0013 23.2608
1 20.1706 21.3632 21.2071
1 19.2106 22.4348 21.4344
1 19.1292 23.5265 20.5245
1 20.0339 23.5298 19.4201
1 20.9141 22.4967 19.1355
1 21.041 21.4611 20.0609
11 19.7894 24.5657 18.6277
2 20.8835 25.4937 18.523
3 20.8916 26.3521 19.8193
3 21.6104 25.9216 21.0834
9 22.145 26.8936 20.2497
1 20.0562 18.9109 21.306
1 19.0173 18.7722 20.3578
1 18.8096 17.5833 19.6588
1 19.7318 16.4752 19.8344
1 20.6966 16.5459 20.8088
1 20.841 17.7683 21.518
11 19.8024 15.3055 19.1008
2 18.7 14.981 18.1919
3 19.0435 13.717 17.3918
3 18.3158 12.3916 17.5942
9 18.0528 13.292 16.5005
6 21.7289 21.075 23.6244
6 22.5498 20.1605 22.4141
6 21.7728 19.305 23.6891
6 19.1289 20.8727 23.849
6 19.1427 19.2005 23.9755
6 18.26 19.9423 22.6598
5 18.4452 22.4082 22.2412
5 18.3904 24.339 20.4433
5 21.5887 22.5046 18.3233
5 21.7942 20.7486 19.8889
6 20.7022 26.1725 17.6631
6 21.9177 25.0977 18.3277
6 19.9959 26.8421 19.9844
6 22.1611 24.9657 20.9935
6 21.2353 26.19 22.1116
5 18.5504 19.7065 20.1417
5 18.0336 17.5971 18.913
5 21.3613 15.7559 21.068
5 21.5189 17.7836 22.3814
6 18.5049 15.8499 17.57
6 17.8902 14.7927 18.9009
6 20.1369 13.7212 17.1185
6 17.4932 12.2746 18.4186
6 18.9067 11.4807 17.3394
49
 Atoms. Timestep: 14000
2 20.5446 19.7603 23.4944
2 19.3943 19.8447 22.4048
2 18.1573 19.6046 23.1899
1 19.4781 21.2894 21.7658
1 18.5503 22.3036 22.0491
1 18.5748 23.6337 21.5029
1 19.7305 23.9111 20.6805
1 20.7684 22.9313 20.5169
1 20.6495 21.6779 21.0599
11 19.7691 25.1527 20.0151
2 20.6166 25.2393 18.8496
3 22.0454 25.7298 19.1142
3 23.3819 24.9597 18.8419
9 22.868 25.9976 18.0088
1 19.578 18.7096 21.3264
1 18.5058 18.5671 20.372
1 18.6455 17.6889 19.2621
1 19.7774 16.8879 19.1401
1 20.8477 17.0509 20.0234
1 20.7883 17.9298 21.1328
11 19.9447 15.8978 18.2045
2 18.8008 15.4275 17.4669
3 19.2247 14.0013 17.0816
3 20.1349 13.1252 17.8993
9 18.7008 12.9235 17.8337
6 20.333 20.3501 24.3838
6 21.553 19.937 23.1639
6 20.6741 18.8284 23.9213
6 18.1598 20.3913 23.9517
6 18.1492 18.7131 23.7133
6 17.2305 19.9164 22.6435
5 17.6664 22.0242 22.501
5 17.6849 24.2431 21.6481
5 21.7229 23.0873 19.977
5 21.5278 20.9355 21.0335
6 20.1046 26.0281 18.2186
6 20.4746 24.4397 18.2112
6 22.1176 26.4788 19.9384
6 23.2644 23.925 18.5205
6 24.2896 25.1893 19.3927
5 17.7028 19.313 20.4271
5 17.834 17.6532 18.4408
5 21.6883 16.3812 19.9671
5 21.6811 17.9786 21.7679
6 18.5094 16.019 16.6324
6 17.9942 15.4143 18.1206
6 19.6044 13.954 16.0717
6 20.4756 13.6663 18.7786
6 20.7095 12.3212 17.3353
49
 Atoms. Timestep: 15000
2 21.388 20.3368 23.2858
2 19.995 20.1903 22.5165
2 18.9795 20.0372 23.6269
1 19.8133 21.3948 21.5733
1 18.7399 22.3243 21.8219
1 18.6916 23.43 20.9336
1 19.4615 23.5651 19.7901
1 20.3956 22.5568 19.5273
1 20.6263 21.477 20.4074
11 19.2562 24.6461 18.9126
2 20.4368 25.2172 18.3596
3 21.4864 25.6305 19.4585
3 22.7413 24.7647 19.7444
9 22.7569 26.0079 19.0338
1 19.9275 18.8998 21.6148
1 18.887 18.8272 20.609
1 18.8042 17.5949 19.8391
1 19.6431 16.4717 20.1175
1 20.5379 16.5475 21.1612
1 20.6922 17.7695 21.8841
11 19.6092 15.3104 19.3304
2 19.4463 15.4561 17.9119
3 19.6017 14.1374 17.2651
3 18.4016 13.3229 16.7355
9 19.275 14.1707 15.9335
6 21.4194 21.3238 23.706
6 22.392 20.3119 22.7877
6 21.5274 19.7449 24.1048
6 19.031 20.7737 24.436
6 19.1536 19.0964 24.1613
6 17.922 20.0978 23.3442
5 18.0529 22.2601 22.6363
5 17.8451 24.0787 21.0426
5 20.7668 22.5746 18.5113
5 21.2785 20.712 20.112
6 20.08 26.0096 17.709
6 20.9467 24.5014 17.6043
6 21.0678 26.3821 20.1493
6 22.9632 23.8306 19.2306
6 22.8885 24.67 20.8003
5 18.2753 19.7047 20.3128
5 18.0611 17.5237 19.0358
5 21.114 15.6492 21.5541
5 21.4687 17.7784 22.6343
6 20.2274 16.1418 17.5767
6 18.5321 15.8475 17.6661
6 20.3204 13.4548 17.7166
6 17.4218 13.6737 16.8761
6 18.5344 12.2908 16.5466
49
 Atoms. Timestep: 16000
2 21.3874 20.3348 22.9115
2 20.1301 20.1727 21.9813
2 18.9981 20.2662 22.9304
1 20.2183 21.3637 21.0227
1 19.1459 22.2647 20.8536
1 19.1971 23.397 20.0237
1 20.3165 23.5647 19.2101
1 21.4143 22.6402 19.321
1 21.3073 21.5266 20.1818
11 20.3921 24.6702 18.3669
2 21.226 25.7662 18.7599
3 20.7357 26.3993 20.1019
3 21.2685 25.8846 21.3781
9 21.7236 27.1365 20.7742
1 20.0256 18.8174 21.2377
1 19.0058 18.6641 20.2635
1 18.8505 17.4165 19.6103
1 19.6978 16.3096 19.8454
1 20.7196 16.4993 20.8441
1 20.8567 17.703 21.5506
11 19.5292 15.068 19.2805
2 18.7394 15.0042 18.0582
3 19.0164 13.6032 17.5252
3 18.0189 12.5703 17.9651
9 18.1519 12.9609 16.6452
6 21.436 21.3571 23.2422
6 22.2245 20.1205 22.1828
6 21.3042 19.7641 23.8691
6 18.9818 21.2728 23.3058
6 19.1465 19.5962 23.7998
6 17.9928 20.0486 22.551
5 18.2395 22.1171 21.4326
5 18.2815 23.9894 20.0105
5 22.364 22.8609 18.853
5 22.1483 20.8242 20.157
6 21.3813 26.5046 17.9852
6 22.248 25.3801 18.8447
6 19.6863 26.6944 20.0961
6 22.004 25.0804 21.3428
6 20.6051 25.9256 22.2582
5 18.2628 19.4535 20.0647
5 18.0805 17.4182 18.8887
5 21.405 15.7468 21.0456
5 21.7388 17.8502 22.2066
6 19.0819 15.6249 17.2818
6 17.6524 15.1475 18.2072
6 20.0861 13.3649 17.4148
6 17.0943 12.7676 18.453
6 18.492 11.6941 18.3592
49
 Atoms. Timestep: 17000
2 20.901 20.3823 23.2241
2 19.656 20.0548 22.3136
2 18.4415 19.8108 23.2649
1 19.4541 21.2657 21.4138
1 18.5003 22.354 21.6587
1 18.6806 23.5501 20.8788
1 19.6424 23.7028 19.8919
1 20.554 22.6823 19.6941
1 20.4874 21.5058 20.4802
11 19.6053 24.9053 19.2665
2 20.7559 25.3652 18.5625
3 21.7531 26.0605 19.4052
3 22.5808 25.3827 20.441
9 23.1492 25.6959 19.2088
1 19.7083 18.9033 21.3083
1 18.7321 18.6514 20.3428
1 18.8604 17.5431 19.4448
1 19.9564 16.629 19.6083
1 20.9091 16.9149 20.5586
1 20.8327 18.0012 21.37
11 20.1302 15.4965 18.8453
2 19.522 15.3158 17.6034
3 19.6351 13.8493 17.3843
3 18.4937 13.0521 18.074
9 18.6218 13.1133 16.7303
6 20.5464 21.1677 23.8346
6 21.7838 20.7063 22.6764
6 21.1247 19.4706 23.8728
6 18.1383 20.5118 23.9982
6 18.6656 18.8591 23.822
6 17.4713 19.5922 22.8388
5 17.8453 22.4352 22.4865
5 18.0861 24.4034 21.0655
5 21.398 22.8629 19.0107
5 21.2108 20.7422 20.3284
6 20.3482 26.0174 17.7624
6 21.2441 24.6574 17.9542
6 21.4958 27.1196 19.4062
6 22.3902 24.3368 20.5819
6 22.6644 26.0064 21.3614
5 17.8821 19.2705 20.3041
5 18.095 17.5008 18.6665
5 21.647 16.1589 20.7395
5 21.531 18.2728 22.1854
6 20.1294 15.7623 16.9226
6 18.5139 15.7415 17.4118
6 20.5653 13.4437 17.517
6 17.6354 13.6344 18.4629
6 18.8353 12.2041 18.719
49
 Atoms. Timestep: 18000
2 20.7109 20.2155 23.6319
2 19.5459 20.0862 22.6918
2 18.3123 19.9392 23.5027
1 19.5639 21.3753 21.8152
1 18.6906 22.4423 21.975
1 18.7077 23.5935 21.168
1 19.6961 23.6546 20.1417
1 20.6273 22.6105 19.9494
1 20.5727 21.5396 20.8875
11 19.7555 24.8501 19.4102
2 20.415 24.8035 18.1628
3 21.7992 25.3104 18.2603
3 22.5581 25.5573 19.4881
9 22.7888 24.4007 18.7387
1 19.5956 18.8694 21.7099
1 18.8467 18.8465 20.5325
1 18.9043 17.7942 19.602
1 19.6646 16.6556 19.9001
1 20.4467 16.6168 21.0611
1 20.4209 17.7127 22.0101
11 19.7198 15.558 19.161
2 19.727 15.8234 17.7164
3 20.0741 14.5433 16.9441
3 19.1424 13.3454 17.1118
9 19.2623 14.1068 15.934
6 20.6378 21.2489 24.1036
6 21.5785 20.0726 23.0375
6 20.8405 19.4573 24.4635
6 18.1813 20.5867 24.4144
6 18.3293 18.9165 23.8882
6 17.4263 19.923 22.9094
5 17.8197 22.4672 22.6833
5 18.0049 24.3821 21.3379
5 21.3535 22.5921 19.1226
5 21.159 20.6813 20.6513
6 19.8747 25.6068 17.6682
6 20.1812 23.9896 17.417
6 22.162 25.8003 17.359
6 21.9662 25.541 20.395
6 23.2848 26.3312 19.486
5 18.1887 19.6343 20.2162
5 18.1664 17.949 18.8377
5 20.9998 15.7191 21.3358
5 21.0982 17.7431 22.7882
6 20.4404 16.5656 17.4569
6 18.7788 16.2813 17.337
6 21.0922 14.1036 17.1346
6 18.1399 13.3475 17.6064
6 19.6396 12.3592 17.1298
49
 Atoms. Timestep: 19000
2 20.5894 20.1764 23.129
2 19.5144 20.1161 22.0004
2 18.239 19.705 22.7936
1 19.573 21.4629 21.3119
1 18.61 22.45 21.6665
1 18.8784 23.7391 21.1052
1 19.9662 24.0499 20.3139
1 20.8033 23.0055 19.8996
1 20.6762 21.6949 20.3963
11 19.9395 25.3121 19.8243
2 20.6676 25.6518 18.6543
3 22.1352 26.0232 18.9029
3 22.56 26.6212 20.273
9 22.9804 25.3276 19.8423
1 19.7564 18.9298 21.0025
1 18.6877 18.6456 20.0557
1 18.584 17.357 19.4428
1 19.6429 16.4414 19.6239
1 20.7538 16.7902 20.4271
1 20.7763 18.0024 21.0449
11 19.7858 15.2535 19.0989
2 18.728 14.7995 18.1845
3 19.4762 13.771 17.3179
3 19.4349 12.3981 17.8592
9 18.8683 12.6416 16.687
6 20.404 21.0841 23.7896
6 21.5189 20.5202 22.7975
6 20.7106 19.306 23.745
6 18.096 20.2534 23.7197
6 18.3351 18.703 23.1575
6 17.3265 19.6995 22.1924
5 17.7148 22.3293 22.2748
5 18.1121 24.4609 21.1413
5 21.5204 23.2054 19.1259
5 21.3283 20.9412 20.1032
6 20.1395 26.496 18.1282
6 20.5381 24.7985 17.95
6 22.5614 26.5762 18.0335
6 21.86 26.6456 21.117
6 23.3039 27.4135 20.2395
5 17.8681 19.3403 19.9435
5 17.8654 17.3511 18.6581
5 21.5322 16.0619 20.5516
5 21.6602 18.1781 21.7119
6 18.3948 15.5066 17.4097
6 17.8407 14.4346 18.6065
6 20.4232 14.1277 16.8492
6 18.8252 12.18 18.7277
6 20.3373 11.8281 17.8011
49
 Atoms. Timestep: 20000
2 20.8343 20.2163 23.5521
2 19.5898 20.0969 22.5393
2 18.2621 19.9753 23.3079
1 19.5639 21.3276 21.609
1 18.7055 22.394 21.8251
1 18.7461 23.5892 21.0411
1 19.7241 23.6626 19.9925
1 20.6045 22.5456 19.7237
1 20.4168 21.4013 20.4989
11 19.7068 24.838 19.2151
2 20.6595 24.9095 18.0916
3 21.9863 25.5109 18.4771
3 22.1532 26.0564 19.9145
9 22.7436 24.8551 19.4336
1 19.7102 18.8613 21.6521
1 18.825 18.6627 20.5661
1 19.0084 17.576 19.6922
1 19.9639 16.5482 19.9014
1 20.7501 16.7054 21.0069
1 20.6312 17.8589 21.9042
11 19.9738 15.3055 19.1894
2 20.0998 15.3959 17.7869
3 19.7336 14.0469 17.2243
3 18.2331 13.8614 17.1571
9 19.0273 13.9819 16.0187
6 20.6463 21.1174 24.2471
6 21.7626 20.5453 23.06
6 21.0433 19.2909 24.1151
6 18.0278 20.6925 24.0766
6 18.2559 18.9683 23.6922
6 17.4847 19.8581 22.5541
5 17.8622 22.3447 22.4966
5 17.9868 24.3609 21.2165
5 21.341 22.4352 18.8975
5 20.9174 20.4728 20.3282
6 20.2356 25.6064 17.3256
6 20.818 23.9602 17.5449
6 22.5864 25.8762 17.6209
6 21.2851 25.9932 20.6301
6 22.778 26.9555 20.0576
5 18.0845 19.4404 20.5485
5 18.2323 17.5057 18.9081
5 21.3461 15.8077 21.2977
5 21.3907 17.9304 22.6716
6 21.1346 15.7256 17.5563
6 19.5365 16.1415 17.3628
6 20.2149 13.2557 17.5787
6 17.5303 14.6452 17.281
6 17.8934 12.9253 17.4971
49
 Atoms. Timestep: 21000
2 20.136 19.9635 23.7163
2 19.258 20.013 22.4827
2 17.8386 19.623 22.9177
1 19.4256 21.3973 21.7735
1 18.6891 22.5109 22.2469
1 18.8645 23.7871 21.5729
1 19.7084 23.9856 20.4736
1 20.3947 22.8527 20.0145
1 20.2681 21.5917 20.6088
11 19.723 25.2179 19.8935
2 20.582 25.4567 18.7478
3 22.054 25.6615 19.095
3 23.1048 24.5816 18.842
9 22.8962 25.8077 18.0394
1 19.6216 18.8776 21.4763
1 18.9459 18.83 20.2519
1 19.206 17.7562 19.3398
1 20.137 16.6919 19.635
1 20.8204 16.8556 20.8023
1 20.5064 17.8538 21.781
11 20.311 15.5573 18.8118
2 19.3897 15.3307 17.8322
3 19.7775 14.0271 17.1273
3 19.1282 12.7047 17.5584
9 18.7885 13.3987 16.3725
6 19.8856 20.6882 24.3741
6 21.1877 20.2753 23.4523
6 20.1281 18.9746 24.1835
6 17.5319 20.1791 23.8272
6 17.8426 18.5255 23.1815
6 17.0051 19.7586 22.2112
5 18.2142 22.4273 23.1849
5 18.398 24.5849 22.0787
5 21.1006 22.9463 19.1645
5 20.8785 20.8454 20.1855
6 20.1343 26.3552 18.2966
6 20.4762 24.6757 17.9267
6 22.1673 26.3065 19.9702
6 22.8007 23.6325 18.4473
6 23.9739 24.667 19.5407
5 18.141 19.5678 20.1503
5 18.8048 17.7833 18.3774
5 21.6645 16.2325 21.1035
5 21.1285 17.8579 22.6258
6 19.2565 16.1202 17.0898
6 18.4498 15.2331 18.299
6 20.7193 13.9026 16.7545
6 18.6165 12.7332 18.5099
6 19.7549 11.8206 17.4521
49
 Atoms. Timestep: 22000
2 20.8998 19.9869 22.924
2 19.729 20.1045 21.8681
2 18.4475 20.2386 22.8664
1 19.9059 21.3249 20.9038
1 18.9185 22.3792 20.7257
1 19.1457 23.5499 19.9417
1 20.3499 23.728 19.3264
1 21.3994 22.7519 19.5565
1 21.1515 21.5599 20.3162
11 20.6687 24.9048 18.7314
2 21.9548 25.5695 18.953
3 21.8661 26.0525 20.3479
3 22.7049 27.2093 20.7965
9 21.4651 27.4596 20.4069
1 19.5454 18.8435 20.9993
1 18.4634 18.657 20.0893
1 18.1795 17.4594 19.4576
1 18.9823 16.3369 19.7461
1 20.0462 16.4672 20.5591
1 20.3937 17.685 21.1256
11 18.5752 15.1741 19.0923
2 19.3192 13.9809 19.208
3 18.8187 12.9062 18.3146
3 18.8516 13.2697 16.8132
9 19.8077 12.3779 17.3922
6 21.0765 20.9711 23.4352
6 21.8777 19.6595 22.5329
6 20.638 19.3096 23.7034
6 18.5209 21.0777 23.583
6 18.2894 19.3703 23.4912
6 17.5745 20.2945 22.155
5 17.9871 22.3981 21.2472
5 18.422 24.3868 19.948
5 22.3956 22.8761 19.216
5 21.9653 20.8507 20.4518
6 22.0577 26.4419 18.327
6 22.8968 25.1212 18.7765
6 21.3796 25.4549 21.1234
6 23.3796 27.5762 20.0746
6 22.9229 27.3998 21.8381
5 17.6603 19.4589 19.9688
5 17.3861 17.2911 18.7744
5 20.5366 15.5711 20.7818
5 21.2469 17.7194 21.7065
6 19.3004 13.7331 20.247
6 20.3117 14.1449 18.9409
6 17.9248 12.3172 18.6221
6 19.1284 14.3396 16.5841
6 17.9707 12.8381 16.287
49
 Atoms. Timestep: 23000
2 20.7509 19.6346 23.4916
2 19.6407 19.7715 22.4488
2 18.3371 19.5134 23.28
1 19.8031 21.1527 21.8557
1 19.2099 22.3616 22.3605
1 19.3957 23.5289 21.6375
1 20.2449 23.7115 20.5473
1 20.8769 22.5229 20.0936
1 20.6577 21.2886 20.7482
11 20.4084 24.8936 19.8636
2 21.6192 25.0189 19.0841
3 21.5228 26.3883 18.3728
3 21.8842 27.6753 19.1241
9 22.7673 27.1119 18.2272
1 19.6098 18.7122 21.2634
1 18.6992 18.913 20.1873
1 18.5436 17.9313 19.2085