LAMMPS (2 Aug 2023)
units real
atom_style full

dimension 3
boundary p p p

pair_style lj/cut/coul/cut 15.0 15.0
pair_modify mix geometric

bond_style harmonic
angle_style harmonic
dihedral_style opls
improper_style cvff
special_bonds lj/coul 0.0 0.0 0.5

read_data DGEBA.dat
Reading data file ...
  orthogonal box = (-6.67908 -6.07739 -4.64866) to (43.32092 43.92261 45.35134)
  1 by 1 by 1 MPI processor grid
  reading atoms ...
  49 atoms
  scanning bonds ...
  2 = max bonds/atom
  scanning angles ...
  6 = max angles/atom
  scanning dihedrals ...
  9 = max dihedrals/atom
  scanning impropers ...
  5 = max impropers/atom
  reading bonds ...
  52 bonds
  reading angles ...
  94 angles
  reading dihedrals ...
  128 dihedrals
  reading impropers ...
  28 impropers
Finding 1-2 1-3 1-4 neighbors ...
  special bond factors lj:    0        0        0.5     
  special bond factors coul:  0        0        0.5     
     4 = max # of 1-2 neighbors
    10 = max # of 1-3 neighbors
    19 = max # of 1-4 neighbors
    22 = max # of special neighbors
  special bonds CPU = 0.000 seconds
  read_data CPU = 0.003 seconds

#kspace_style    pppm 1e-5
#kspace_modify  slab 3.0

neighbor        1.0 bin
neigh_modify    delay 0 every 1 check yes

thermo          1000
thermo_style    custom step temp density press pxx pyy pzz pxy pxz pyz ke pe etotal vol lx ly lz

dump            1 all xyz 1000 dump_relax.xyz
#dump_modify     1 sort id

#NVT/NPT melt run
fix             1 all nvt temp 300 300 100
#fix             1 all npt temp 400 400 100 iso 1 1 1000
fix             2 all recenter 20.0 20.0 20.0
run             100000
Generated 55 of 55 mixed pair_coeff terms from geometric mixing rule
Neighbor list info ...
  update: every = 1 steps, delay = 0 steps, check = yes
  max neighbors/atom: 2000, page size: 100000
  master list distance cutoff = 16
  ghost atom cutoff = 16
  binsize = 8, bins = 7 7 7
  1 neighbor lists, perpetual/occasional/extra = 1 0 0
  (1) pair lj/cut/coul/cut, perpetual
      attributes: half, newton on
      pair build: half/bin/newton
      stencil: half/bin/3d
      bin: standard
Per MPI rank memory allocation (min/avg/max) = 13.47 | 13.47 | 13.47 Mbytes
   Step          Temp         Density         Press           Pxx            Pyy            Pzz            Pxy            Pxz            Pyz           KinEng         PotEng         TotEng         Volume           Lx             Ly             Lz      
         0   0              0.004522232    352.22364      269.47835      488.74934      298.44324      43.568035     -62.286491     -3.7148846      0              494.93829      494.93829      125000         50             50             50           
      1000   291.41685      0.004522232    34.629329      30.379738      40.95682       32.551429     -41.503871      38.117092     -8.8589785      41.695597      132.88762      174.58322      125000         50             50             50           
      2000   261.18131      0.004522232   -3.3516205      19.69091       25.232072     -54.977843      24.811514      29.962728     -0.053634262    37.369531      126.25341      163.62294      125000         50             50             50           
      3000   295.43973      0.004522232    66.642275      57.084573      98.096603      44.74565       47.647049      24.545202      3.628298       42.271187      133.39913      175.67032      125000         50             50             50           
      4000   292.56158      0.004522232    12.780799      33.723014     -23.968781      28.588165     -6.5235484      0.68297964     48.395399      41.859384      137.45594      179.31532      125000         50             50             50           
      5000   304.90772      0.004522232   -7.7978592      33.380295      11.180254     -67.954126      37.382824      14.56958       18.710103      43.625856      134.9142       178.54005      125000         50             50             50           
      6000   358.3032       0.004522232   -46.625624     -85.900253      8.3338289     -62.310449     -12.049483     -6.2600721      36.950681      51.265622      126.73237      177.99799      125000         50             50             50           
      7000   369.86982      0.004522232   -15.776141     -41.210294      13.706595     -19.824723     -79.635771     -41.278925     -89.978031      52.92056       127.97829      180.89885      125000         50             50             50           
      8000   344.25604      0.004522232    31.049279     -4.4945632      28.375984      69.266415      13.389294     -5.119448      -21.096595      49.255769      131.6362       180.89197      125000         50             50             50           
      9000   276.54874      0.004522232    84.714156      51.185851      85.733103      117.22351     -38.25367       63.81931      -54.472803      39.568284      137.53293      177.10122      125000         50             50             50           
     10000   266.37377      0.004522232    34.355623      12.344721      9.1206859      81.601463      45.632431     -35.512919     -6.5099282      38.112461      129.76953      167.88199      125000         50             50             50           
     11000   285.85679      0.004522232   -30.883376     -25.386407     -92.632562      25.368843      68.8123       -25.301651      46.332203      40.90007       130.96737      171.86744      125000         50             50             50           
     12000   251.64243      0.004522232    31.35477       4.1953699      60.784274      29.084666      8.8377477     -14.080619      40.323713      36.004718      129.56158      165.5663       125000         50             50             50           
     13000   341.72572      0.004522232   -50.865617     -74.393814     -4.6310468     -73.571991      1.6807982      32.906211      0.96939275     48.893733      130.75885      179.65258      125000         50             50             50           
     14000   315.28512      0.004522232   -69.885849     -140.44059     -52.318755     -16.898201      85.664702     -42.738704     -37.420192      45.110643      142.07256      187.18321      125000         50             50             50           
     15000   313.21683      0.004522232   -42.737211     -43.957727     -58.200829     -26.053077      17.695779     -29.368954     -19.639641      44.814714      131.92062      176.73533      125000         50             50             50           
     16000   377.60257      0.004522232   -2.2972988     -6.2900337     -17.072515      16.470653     -10.985628     -6.5367058     -20.937417      54.026954      119.7217       173.74865      125000         50             50             50           
     17000   411.23352      0.004522232    50.083062     -1.1072083      50.255733      101.10066      21.238537      1.7979775      36.616004      58.838832      136.3769       195.21573      125000         50             50             50           
     18000   254.46213      0.004522232    12.738984      69.139734     -44.71182       13.789037      58.655511      28.359396      8.0633797      36.408157      131.19506      167.60322      125000         50             50             50           
     19000   338.48739      0.004522232    13.265314     -12.952976      66.572029     -13.823112     -37.625793     -21.805117     -21.458085      48.430398      138.99201      187.42241      125000         50             50             50           
     20000   284.31548      0.004522232   -21.553452     -0.19522061    -47.071823     -17.393313      1.0324908      63.758111     -74.972297      40.679541      135.03646      175.716        125000         50             50             50           
     21000   290.85442      0.004522232    5.7319543      74.045617     -92.672517      35.822763     -12.15888       38.741533      21.80475       41.615126      130.82188      172.437        125000         50             50             50           
     22000   298.07441      0.004522232   -12.438288      51.582605     -90.955136      2.0576665      37.517531      27.080554      6.924605       42.648153      139.41051      182.05866      125000         50             50             50           
     23000   301.03209      0.004522232   -6.03388       -12.756035      14.867034     -20.212639     -0.49321035    -14.850916     -5.0502094      43.071334      118.78933      161.86067      125000         50             50             50           
     24000   331.04113      0.004522232    23.586347      39.959334     -42.019623      72.819329     -24.402918     -7.466054      -2.0352566      47.364994      142.44277      189.80777      125000         50             50             50           
     25000   257.49531      0.004522232    52.109589      24.483179      81.996261      49.849327      56.56386       12.052318     -1.2588261      36.842141      132.40591      169.24805      125000         50             50             50           
     26000   258.97942      0.004522232    31.591448     -19.824664      70.257867      44.341141     -89.243459     -38.778284     -22.134842      37.054486      135.62419      172.67868      125000         50             50             50           
     27000   325.378        0.004522232    28.411141     -21.295104      122.87365     -16.345124      12.988795      4.6451306      31.865939      46.55472       120.77676      167.33148      125000         50             50             50           
     28000   329.83713      0.004522232    5.9652629     -10.980725     -7.5554389      36.431952     -38.948433     -35.315294     -57.818547      47.192728      136.5001       183.69283      125000         50             50             50           
     29000   279.38279      0.004522232    30.283625      2.7656766      62.864094      25.221104     -57.083907      2.4454662      26.316363      39.973778      133.73488      173.70866      125000         50             50             50           
     30000   267.71541      0.004522232    64.644864      37.811918      85.13269       70.989983      60.458689     -16.816154      20.504136      38.304422      119.88772      158.19215      125000         50             50             50           
     31000   292.95815      0.004522232    39.104832      46.099882      84.071701     -12.857087      31.28591      -14.374718      41.443485      41.916125      138.54762      180.46374      125000         50             50             50           
     32000   284.09863      0.004522232    2.205589       14.758439     -10.624255      2.4825832     -5.100921       7.9308439      23.551604      40.648514      128.06479      168.71331      125000         50             50             50           
     33000   245.5423       0.004522232   -11.055025     -22.80444      -13.979611      3.6189765      43.124098     -43.876779     -40.452172      35.131918      132.53615      167.66806      125000         50             50             50           
     34000   403.13415      0.004522232    3.9887331      10.372424      31.488313     -29.894538      24.395062     -4.5919608      27.393274      57.679984      139.39822      197.07821      125000         50             50             50           
     35000   272.65021      0.004522232   -74.607201     -82.336474     -46.704761     -94.780368     -59.901382     -26.085678      9.0409802      39.010487      126.01973      165.03022      125000         50             50             50           
     36000   303.56135      0.004522232    12.177694      11.053084     -16.922195      42.402194      69.748178      18.691962     -47.598323      43.433219      131.25536      174.68858      125000         50             50             50           
     37000   318.0728       0.004522232   -33.860573     -55.735272     -69.70834       23.861895      102.52888      31.510057     -25.651514      45.5095        133.18341      178.69291      125000         50             50             50           
     38000   350.57969      0.004522232   -6.259009      -12.37754       20.388702     -26.788189     -6.5808647     -20.783948      34.906994      50.16055       126.64159      176.80214      125000         50             50             50           
     39000   267.7323       0.004522232    48.849257      54.243922      31.830634      60.473214      9.4248922     -20.252576      17.490284      38.306839      120.92925      159.23609      125000         50             50             50           
     40000   279.54903      0.004522232    19.20281       49.929299      53.34177      -45.662638      28.027196     -12.384548     -23.822023      39.997563      140.96183      180.95939      125000         50             50             50           
     41000   304.14425      0.004522232    7.0953975      9.8933371     -51.244934      62.637789     -11.533197      0.086798122   -4.5621852      43.516619      126.21367      169.73029      125000         50             50             50           
     42000   336.69919      0.004522232    11.79264       12.599517      7.3420054      15.436397      26.044675      4.847381      -72.604926      48.174545      132.49361      180.66815      125000         50             50             50           
     43000   279.9994       0.004522232   -37.123136     -13.28688      -18.904487     -79.178042      2.8058289      33.831875     -24.816775      40.062001      134.43197      174.49397      125000         50             50             50           
     44000   322.49775      0.004522232    22.34637       13.403315      25.102476      28.533319     -15.330844     -1.4122208     -0.29983764     46.142617      131.39042      177.53304      125000         50             50             50           
     45000   243.31243      0.004522232    55.495325      63.007944      145.31678     -41.838748     -50.763612      7.1265554      0.43767659     34.81287       129.10361      163.91648      125000         50             50             50           
     46000   257.77628      0.004522232   -33.570138     -27.469974     -112.19131      38.950874      19.551643     -19.934448      38.339772      36.882342      137.55243      174.43477      125000         50             50             50           
     47000   237.85695      0.004522232   -47.248321     -73.233159     -101.0527       32.540891      50.224923      31.898028      8.5225137      34.032307      124.69668      158.72899      125000         50             50             50           
     48000   353.00734      0.004522232   -26.11721      -63.578906      3.1029634     -17.875688     -12.33867       70.992662     -39.302177      50.507895      137.88171      188.38961      125000         50             50             50           
     49000   259.00028      0.004522232    49.735671      32.521224      60.251074      56.434717     -38.8411       -18.606351      25.155956      37.057471      134.91817      171.97564      125000         50             50             50           
     50000   247.59633      0.004522232    41.951002      104.34723      36.43219      -14.92642       30.359962      9.5878714      0.0016982445   35.425807      135.85433      171.28013      125000         50             50             50           
     51000   250.20524      0.004522232   -34.29587      -3.4716587     -62.288319     -37.127633     -24.201858      26.796818      34.26374       35.799087      133.80986      169.60895      125000         50             50             50           
     52000   326.06979      0.004522232    67.893598      39.138656      121.46408      43.078062      8.9918307     -70.936015     -5.2092907      46.653701      138.94984      185.60355      125000         50             50             50           
     53000   273.75898      0.004522232   -37.199514     -42.676689     -62.393344     -6.5285094     -26.618799     -24.968971     -40.677799      39.169129      127.80406      166.97319      125000         50             50             50           
     54000   384.64519      0.004522232    12.315833     -2.2270319      61.582778     -22.408246      22.724216     -11.162752     -4.5484271      55.034605      131.97675      187.01136      125000         50             50             50           
     55000   279.23623      0.004522232    26.791102      16.413498      47.153308      16.806501     -17.126276      0.84427417    -50.666588      39.952808      132.27741      172.23022      125000         50             50             50           
     56000   326.77374      0.004522232   -91.131498     -68.004323     -54.488083     -150.90209      14.542522     -34.537337     -24.666998      46.754422      141.01876      187.77319      125000         50             50             50           
     57000   290.4341       0.004522232    11.466864     -20.647911      87.119233     -32.070731     -7.3648178     -30.179185      10.030578      41.554987      137.45004      179.00502      125000         50             50             50           
     58000   285.6268       0.004522232    10.653718     -26.752076      29.052949      29.66028       60.6941        46.191069     -4.8315176      40.867164      135.36357      176.23073      125000         50             50             50           
     59000   309.8759       0.004522232    46.391567      95.85814       20.675573      22.640987      10.795418      22.76158       49.060165      44.336698      130.3726       174.7093       125000         50             50             50           
     60000   320.50436      0.004522232    15.605055      28.865315     -0.93909735     18.888949     -34.003375      13.661752      10.663935      45.857406      131.39341      177.25082      125000         50             50             50           
     61000   288.19206      0.004522232    14.877821     -15.296313      28.857512      31.072264      13.650415     -3.7883338     -42.922679      41.234198      128.57656      169.81076      125000         50             50             50           
     62000   365.33512      0.004522232    4.6898861     -39.413998      60.455972     -6.9723154      11.577826     -38.200481      55.906879      52.271741      133.02602      185.29776      125000         50             50             50           
     63000   330.67828      0.004522232   -7.5219382     -67.206546      43.344408      1.296323       46.02678       31.65387      -17.286572      47.313079      130.0257       177.33878      125000         50             50             50           
     64000   321.20727      0.004522232   -10.686389     -9.425602      -45.119235      22.48567       25.984995      2.941147      -43.501463      45.957977      126.79988      172.75786      125000         50             50             50           
     65000   379.75989      0.004522232    5.4340952     -19.604009      39.153443     -3.2471484     -19.193412     -48.138202     -30.86792       54.335621      137.02317      191.35879      125000         50             50             50           
     66000   288.98255      0.004522232    27.751871      79.415884      50.013709     -46.173981      63.75683       26.730689     -37.553255      41.347301      137.36384      178.71114      125000         50             50             50           
     67000   336.13701      0.004522232    5.2539198      6.3408748     -62.624847      72.045731     -14.953783     -47.31418       16.630693      48.094107      131.57538      179.66949      125000         50             50             50           
     68000   301.75284      0.004522232    26.846179      9.5873664      31.811967      39.139204      8.5913028     -36.648198      93.768074      43.17446       137.76089      180.93535      125000         50             50             50           
     69000   299.42517      0.004522232    34.587048      52.880745      64.003535     -13.123136      12.392992     -32.918716      27.465601      42.841419      140.31699      183.15841      125000         50             50             50           
     70000   295.9504       0.004522232   -37.829        -30.118499     -39.198318     -44.170182     -53.344187     -4.1396865     -57.294186      42.344252      133.64654      175.9908       125000         50             50             50           
     71000   266.17047      0.004522232    45.42226       64.970828      30.561797      40.734156     -25.593321     -64.085597     -8.6555861      38.083373      135.21602      173.29939      125000         50             50             50           
     72000   415.47874      0.004522232   -37.765295     -5.9431773     -33.196454     -74.156252      61.31845       46.004247     -66.634612      59.446234      131.13821      190.58444      125000         50             50             50           
     73000   241.75252      0.004522232   -32.704038     -33.870637     -54.875684     -9.3657928     -22.230542      22.479196     -44.970284      34.58968       128.14832      162.738        125000         50             50             50           
     74000   316.66764      0.004522232    0.71226915     53.901154      26.995501     -78.759847      54.374964      22.324699      67.310505      45.308452      132.68092      177.98938      125000         50             50             50           
     75000   300.60065      0.004522232   -73.182624     -111.21974     -39.306326     -69.021808     -54.079255     -4.4598344     -1.4711755      43.009605      134.80968      177.81928      125000         50             50             50           
     76000   281.60155      0.004522232   -26.487736     -54.439394     -16.366052     -8.6577613      32.007473     -39.672784     -81.776237      40.291235      133.09907      173.39031      125000         50             50             50           
     77000   297.53888      0.004522232   -67.115752     -77.038464     -75.215238     -49.093552      0.93317436    -8.8423709      27.049619      42.57153       134.79689      177.36842      125000         50             50             50           
     78000   299.08156      0.004522232   -62.881628     -174.28856     -37.721482      23.365153      17.39955      -15.548764     -1.3963782      42.792255      141.90369      184.69594      125000         50             50             50           
     79000   251.91058      0.004522232   -78.203157     -37.597528     -138.50942     -58.502523     -40.139915     -6.6056791      16.680562      36.043085      125.70442      161.7475       125000         50             50             50           
     80000   248.14372      0.004522232   -2.459302       4.8612123     -49.370438      37.13132       3.7259411     -24.101434      21.844065      35.504126      138.32368      173.8278       125000         50             50             50           
     81000   332.80944      0.004522232   -15.875485     -54.4697        54.93062      -48.087375      41.504635      27.329875     -2.3046688      47.618003      133.94163      181.55963      125000         50             50             50           
     82000   371.14323      0.004522232   -20.593505     -58.380591      28.845135     -32.245059     -17.454395      27.945968     -11.7671        53.102758      138.29443      191.39719      125000         50             50             50           
     83000   269.31529      0.004522232    34.297527      58.686473      7.8926116      36.313497      60.564472      7.8124479      19.778596      38.53333       124.95697      163.4903       125000         50             50             50           
     84000   347.21121      0.004522232    26.896118      70.385805      4.0123167      6.2902329      34.518011      6.7312743      63.349525      49.678592      129.2215       178.9001       125000         50             50             50           
     85000   360.6758       0.004522232   -48.450927      1.9621459     -90.185667     -57.12926       27.159684     -1.0573145     -31.195229      51.605091      136.70045      188.30555      125000         50             50             50           
     86000   270.80483      0.004522232    8.6393125     -31.838879      17.52824       40.228577     -4.1424329     -25.404628     -6.9277426      38.746453      132.20452      170.95098      125000         50             50             50           
     87000   331.93969      0.004522232    16.570418      83.527296     -13.038787     -20.777256     -9.0278936      4.1004228      42.977816      47.49356       137.57004      185.0636       125000         50             50             50           
     88000   325.64735      0.004522232    57.446736      18.726897      55.149436      98.463874     -49.333093      34.494211     -56.830644      46.59326       131.26832      177.86158      125000         50             50             50           
     89000   280.51042      0.004522232    4.239024       22.213469      7.3611337     -16.85753       43.236234      15.978586     -17.652403      40.135117      126.60494      166.74005      125000         50             50             50           
     90000   380.92656      0.004522232   -36.239872      19.64455      -66.778485     -61.585681     -17.253692      6.3016029      36.975091      54.502547      135.17287      189.67542      125000         50             50             50           
     91000   285.51632      0.004522232   -37.22704      -19.268405     -98.783495      6.3707801      17.039668     -15.307158      56.78852       40.851355      127.80106      168.65242      125000         50             50             50           
     92000   361.20309      0.004522232    38.488043      83.527217      34.426583     -2.4896713      4.6604945     -1.7126321     -11.360642      51.680534      131.10823      182.78877      125000         50             50             50           
     93000   274.5104       0.004522232   -43.178948     -21.409974     -39.078184     -69.048685      31.545443     -15.229121     -4.7687998      39.276642      128.29756      167.5742       125000         50             50             50           
     94000   304.21248      0.004522232   -74.015773     -68.194803     -103.69603     -50.156488     -20.374752     -19.130493     -4.6665199      43.526381      132.39294      175.91932      125000         50             50             50           
     95000   217.07072      0.004522232   -46.1676       -41.368144     -62.30753      -34.827128      6.8493119      19.930025     -1.6701681      31.058236      130.82854      161.88678      125000         50             50             50           
     96000   339.43126      0.004522232    54.947164      32.220591      82.804049      49.816851     -14.775748      22.317752      34.89265       48.565446      126.75892      175.32437      125000         50             50             50           
     97000   299.9822       0.004522232    18.089037      23.179162     -28.021125      59.109074      1.9866043     -7.8697844      27.328644      42.921118      129.1069       172.02802      125000         50             50             50           
     98000   266.70878      0.004522232   -5.8569717      10.054781      8.8633052     -36.489001      6.1127402      37.079109     -10.378246      38.160394      122.75548      160.91587      125000         50             50             50           
     99000   304.61818      0.004522232    42.100383      59.100583      50.638043      16.562522      32.944266      44.876768     -25.050226      43.584429      138.96398      182.54841      125000         50             50             50           
    100000   273.37025      0.004522232    0.4362459      15.111212     -77.756059      63.953585      26.183174     -30.808903     -34.582813      39.113509      128.22198      167.33549      125000         50             50             50           
Loop time of 1.99228 on 1 procs for 100000 steps with 49 atoms

Performance: 4336.733 ns/day, 0.006 hours/ns, 50193.670 timesteps/s, 2.459 Matom-step/s
99.0% CPU use with 1 MPI tasks x no OpenMP threads

MPI task timing breakdown:
Section |  min time  |  avg time  |  max time  |%varavg| %total
---------------------------------------------------------------
Pair    | 0.55262    | 0.55262    | 0.55262    |   0.0 | 27.74
Bond    | 1.2591     | 1.2591     | 1.2591     |   0.0 | 63.20
Neigh   | 0.072215   | 0.072215   | 0.072215   |   0.0 |  3.62
Comm    | 0.0087951  | 0.0087951  | 0.0087951  |   0.0 |  0.44
Output  | 0.0051903  | 0.0051903  | 0.0051903  |   0.0 |  0.26
Modify  | 0.079367   | 0.079367   | 0.079367   |   0.0 |  3.98
Other   |            | 0.01502    |            |       |  0.75

Nlocal:             49 ave          49 max          49 min
Histogram: 1 0 0 0 0 0 0 0 0 0
Nghost:              0 ave           0 max           0 min
Histogram: 1 0 0 0 0 0 0 0 0 0
Neighs:           1034 ave        1034 max        1034 min
Histogram: 1 0 0 0 0 0 0 0 0 0

Total # of neighbors = 1034
Ave neighs/atom = 21.102041
Ave special neighs/atom = 10.122449
Neighbor list builds = 4813
Dangerous builds = 1
unfix           1
unfix           2
write_data      DGEBA_center.dat
System init for write_data ...
Generated 55 of 55 mixed pair_coeff terms from geometric mixing rule
Total wall time: 0:00:02
