78
 Atoms. Timestep: 0
2 20.0478 15.2941 13.5194
2 19.5981 15.8156 14.9265
2 20.8587 15.8218 15.8989
1 18.7604 17.2074 14.9042
1 17.549 17.2137 14.1898
1 16.8442 18.3953 13.9203
1 17.1371 19.6092 14.6581
1 18.2152 19.5788 15.5823
1 19.0412 18.4043 15.6312
11 16.3569 20.6996 14.3455
2 15.9112 21.4056 15.4715
3 15.367 22.7174 15.0197
3 13.911 22.8223 14.7499
9 14.5093 23.5351 15.8278
1 18.6021 14.8141 15.539
1 18.0663 15.0685 16.7999
1 17.2572 14.166 17.51
1 16.9533 12.9055 16.9985
1 17.4667 12.5777 15.72
1 18.406 13.4577 15.0796
11 16.0341 12.1045 17.7093
2 14.9628 11.6816 16.9214
3 14.3119 10.6091 17.7662
3 13.0692 10.7992 18.5416
9 13.1116 10.1226 17.2906
6 20.7352 15.8823 12.9052
6 19.1574 15.2793 12.8568
6 20.4671 14.2435 13.6213
6 21.3032 16.7474 15.5239
6 21.4579 14.907 15.6967
6 20.7049 16.071 16.9826
5 17.1601 16.2603 13.8245
5 15.9656 18.4495 13.34
5 18.4648 20.4599 16.2025
5 19.8495 18.4721 16.3319
6 16.7496 21.5852 16.1971
6 15.1622 20.7332 15.8437
6 16.0549 23.2953 14.4485
6 13.3146 21.9391 14.9975
6 13.5793 23.3068 13.8251
5 18.3001 16.0334 17.1674
5 16.8548 14.4857 18.4933
5 17.3598 11.6023 15.2298
5 18.8846 13.0773 14.1772
6 15.3363 11.1068 16.0725
6 14.3303 12.5029 16.62
6 15.0707 9.97658 18.1432
6 12.4646 11.7159 18.5842
6 12.7931 10.0401 19.2223
1 24.3502 25.9551 28.8556
1 24.6863 25.7352 30.2117
1 25.1488 26.8685 31.0106
1 25.3423 28.1208 30.4379
1 25.1599 28.2503 28.9998
1 24.6869 27.1728 28.2216
2 24.2671 27.4071 26.7766
1 25.1109 26.5891 25.7599
1 26.5186 26.7946 25.5092
1 27.2491 26.1918 24.4715
1 26.6578 25.1708 23.7458
1 25.2758 24.8583 24.045
1 24.4868 25.5166 24.9904
8 27.291 24.5589 22.7556
8 25.331 26.7511 32.3401
5 23.787 25.2113 28.4142
5 24.4257 24.8093 30.6624
5 25.53 28.9562 31.0801
5 25.5295 29.1633 28.4909
6 24.5822 28.3915 26.5588
6 23.2582 27.4853 26.6015
5 27.1823 27.4615 26.0382
5 28.2336 26.5463 24.384
5 24.7865 24.0085 23.472
5 23.3987 25.3425 25.1341
4 28.1182 24.9527 22.2577
4 26.6759 24.1093 21.9812
4 25.1155 25.9603 32.9331
4 25.3445 27.6162 32.8449
78
 Atoms. Timestep: 1000
2 19.8301 15.9835 14.57
2 19.3067 16.3494 15.9582
2 20.522 16.3437 16.9218
1 18.6489 17.7819 15.858
1 17.6603 17.9451 14.8404
1 16.9771 19.1479 14.6942
1 17.4205 20.3238 15.4653
1 18.4809 20.173 16.4533
1 19.0641 18.858 16.7006
11 16.8637 21.5544 15.1894
2 17.2167 22.7607 15.8892
3 16.6398 23.9896 15.2646
3 15.1183 24.1253 15.5466
9 16.0538 25.041 16.0803
1 18.2343 15.2839 16.3281
1 17.2112 15.7095 17.2105
1 16.1274 14.8647 17.5166
1 16.2004 13.5104 17.2346
1 17.3023 13.0528 16.4308
1 18.2665 13.9266 15.9428
11 15.2826 12.5721 17.7441
2 14.6224 11.7713 16.7204
3 13.5974 10.8705 17.3846
3 12.1044 11.156 17.1204
9 12.7778 10.0273 16.6079
6 20.5574 16.6878 14.1692
6 19.0543 15.7253 13.7357
6 20.4572 15.1175 14.739
6 21.1995 17.2034 16.6497
6 21.0479 15.3769 16.9662
6 20.2775 16.5434 17.984
5 17.2612 17.0702 14.2788
5 16.1374 19.2017 14.027
5 18.9402 20.9175 17.0598
5 19.7793 18.8306 17.5138
6 18.2831 22.9603 15.96
6 16.7854 22.628 16.8669
6 17.0444 24.3237 14.3118
6 14.6081 23.4407 16.2403
6 14.4836 24.4718 14.6694
5 17.1697 16.7357 17.5352
5 15.3507 15.3723 18.0572
5 17.4571 12.044 16.1838
5 19.0072 13.6221 15.2805
6 15.363 11.0426 16.2624
6 14.168 12.3998 15.9588
6 13.9112 10.4775 18.384
6 11.8549 11.8708 16.3943
6 11.2932 10.9135 17.7375
1 23.6987 25.2544 27.3509
1 23.5428 24.5284 28.56
1 24.0194 25.1305 29.734
1 24.7951 26.2352 29.7103
1 24.95 26.9377 28.5039
1 24.3907 26.4751 27.2677
2 24.8114 27.1174 25.9991
1 26.0326 26.4255 25.3637
1 27.356 26.7486 25.722
1 28.5122 25.9114 25.3098
1 28.2181 24.8591 24.5014
1 26.8999 24.5677 24.0895
1 25.8171 25.302 24.571
8 29.2202 24.1618 24.0473
8 23.7002 24.5721 30.9107
5 23.1861 24.9673 26.4019
5 22.9167 23.6333 28.636
5 25.2565 26.5734 30.6645
5 25.703 27.7225 28.5833
6 25.1607 28.1271 26.1725
6 23.9389 27.2592 25.4128
5 27.4746 27.4722 26.4842
5 29.5375 26.2058 25.6115
5 26.7303 23.7753 23.3748
5 24.8307 25.1141 24.4519
4 30.0895 24.5825 23.9928
4 29.011 23.6793 23.1967
4 23.0297 23.8501 30.9147
4 23.3388 25.2373 31.5449
78
 Atoms. Timestep: 2000
2 21.119 17.414 17.2606
2 19.8157 17.7878 18.1401
2 20.3419 17.7813 19.6459
1 19.3011 19.14 17.6946
1 18.7119 19.3249 16.4065
1 18.2772 20.6398 16.036
1 18.5413 21.7978 16.8482
1 19.0969 21.5536 18.0756
1 19.4793 20.2851 18.607
11 18.1327 23.0907 16.4195
2 18.6222 24.201 17.0422
3 18.0831 25.4234 16.3132
3 16.8426 26.2204 16.6976
9 18.0786 26.5667 17.1593
1 18.6554 16.7727 17.9468
1 17.3848 17.039 18.6069
1 16.5269 15.9195 18.6855
1 16.6927 14.7044 18.0284
1 17.8996 14.4689 17.2414
1 18.9021 15.4787 17.2868
11 15.7942 13.7453 18.3119
2 14.9244 13.3 17.2053
3 13.745 12.5687 17.7674
3 12.3372 13.1729 18.1382
9 12.5904 12.6303 16.8895
6 21.912 18.1238 17.2918
6 20.9187 17.4062 16.2225
6 21.5092 16.4859 17.4626
6 21.1768 18.4381 19.7289
6 20.7645 16.84 19.9713
6 19.5514 17.9607 20.378
5 18.6275 18.6029 15.6283
5 17.8414 20.8137 15.0709
5 19.2333 22.3765 18.7801
5 19.8664 20.2926 19.568
6 19.7461 24.1369 16.9913
6 18.2592 24.1673 18.1494
6 18.3729 25.5303 15.2451
6 16.1906 25.6217 17.371
6 16.4036 26.9092 16.0274
5 17.1701 17.9999 19.0438
5 15.613 15.9805 19.2662
5 17.9968 13.5568 16.7411
5 19.8264 15.2576 16.7836
6 15.4683 12.6826 16.4858
6 14.6228 14.1942 16.6442
6 13.8614 11.5725 18.2032
6 12.203 14.2533 18.2023
6 11.94 12.5557 18.9736
1 24.3073 24.4781 26.2862
1 23.2573 23.7328 26.8741
1 22.8944 23.9124 28.2614
1 23.5459 24.8357 29.1057
1 24.5259 25.6945 28.431
1 24.794 25.5904 27.0356
2 25.8069 26.578 26.4362
1 26.957 25.8419 25.7638
1 27.9262 25.2649 26.6436
1 29.1357 24.8206 26.1028
1 29.3616 24.8621 24.7622
1 28.4093 25.4449 23.8738
1 27.2527 25.9772 24.366
8 30.5971 24.5911 24.3229
8 21.8595 23.2023 28.7316
5 24.4495 24.5104 25.2208
5 22.7419 22.9785 26.3155
5 23.2624 25.0112 30.1553
5 25.0474 26.4401 28.9094
6 26.1227 27.421 27.0346
6 25.2253 26.9994 25.6076
5 27.8774 25.2758 27.7438
5 29.854 24.4548 26.7278
5 28.6833 25.5726 22.8022
5 26.5525 26.597 23.7665
4 31.3095 24.3731 24.9146
4 30.9493 24.7867 23.4113
4 21.1041 23.2196 28.0612
4 21.502 23.2399 29.6822
78
 Atoms. Timestep: 3000
2 21.6552 18.203 18.8857
2 20.2932 18.6164 19.5073
2 20.4782 18.6977 21.0289
1 19.8336 19.9609 18.8384
1 19.9 20.0916 17.4412
1 19.4344 21.2765 16.7987
1 18.8548 22.3353 17.5922
1 18.667 22.1678 18.9308
1 19.2268 21.0331 19.5178
11 18.3475 23.466 16.8769
2 17.6233 24.4777 17.5141
3 17.3599 25.548 16.5183
3 16.2729 25.2276 15.5644
9 16.1804 26.3017 16.4763
1 19.0912 17.7138 19.1721
1 17.898 18.0758 19.8066
1 16.7009 17.2955 19.5653
1 16.7679 16.2085 18.7201
1 17.9767 15.8644 18.1052
1 19.1004 16.6978 18.2444
11 15.6787 15.4459 18.3707
2 14.6529 16.2243 17.6821
3 13.614 15.327 17.0388
3 12.2962 15.3159 17.816
9 12.4534 15.9008 16.5636
6 22.5242 18.8132 19.1785
6 21.6795 18.2181 17.7922
6 21.8472 17.1938 19.2233
6 21.2707 19.4114 21.1951
6 20.7308 17.7452 21.4776
6 19.5212 18.8838 21.4817
5 20.202 19.2939 16.7807
5 19.5462 21.3597 15.6962
5 18.255 22.9617 19.5669
5 19.1322 21.0389 20.5915
6 18.3121 24.9042 18.2494
6 16.8125 24.0972 18.1576
6 18.2485 26.0107 16.0562
6 15.6527 24.3731 15.7679
6 16.3754 25.4644 14.5503
5 17.9469 18.8871 20.4363
5 15.6768 17.4692 20.0286
5 18.067 14.9324 17.5193
5 20.055 16.4373 17.7801
6 15.0382 16.9231 16.957
6 14.2792 16.9127 18.4498
6 13.9882 14.3448 16.7815
6 12.2465 15.9113 18.766
6 11.6228 14.4297 17.8091
1 25.0055 24.334 25.1158
1 24.1896 23.206 25.2269
1 23.793 22.6263 26.4325
1 24.2795 23.2667 27.6117
1 25.1586 24.3349 27.486
1 25.5014 24.9585 26.2592
2 26.5163 26.0664 26.2675
1 27.8871 25.5055 26.476
1 28.3784 25.4964 27.764
1 29.598 24.8974 27.956
1 30.3091 24.3247 26.9041
1 29.7543 24.1822 25.609
1 28.5784 24.8453 25.3896
8 31.4907 23.7264 27.214
8 22.823 21.7663 26.4354
5 25.3809 24.7181 24.1823
5 23.8341 22.7668 24.3711
5 24.0102 23.0372 28.614
5 25.5753 24.6386 28.5217
6 26.1358 26.8469 26.8439
6 26.5441 26.4258 25.2575
5 27.7232 26.0041 28.5033
5 29.8772 24.8992 28.9759
5 30.2648 23.5665 24.8158
5 28.173 24.7656 24.4752
4 32.1078 24.1072 27.8892
4 32.062 23.2734 26.4671
4 22.4079 21.604 25.5106
4 22.1604 21.9255 27.1907
78
 Atoms. Timestep: 4000
2 20.3923 19.5999 20.1126
2 18.9053 20.0058 20.1896
2 18.685 20.2356 21.6837
1 18.6786 21.3191 19.3455
1 19.1345 21.3035 17.947
1 19.1081 22.4418 17.0799
1 18.5021 23.5865 17.5969
1 17.9471 23.6332 18.9378
1 18.1305 22.5754 19.8662
11 18.3607 24.7545 16.8496
2 18.729 26.0014 17.4951
3 19.0472 26.9372 16.4315
3 17.753 27.5113 15.8128
9 18.6808 28.3018 16.5247
1 17.939 18.8504 19.7407
1 16.6319 19.0948 19.3226
1 15.8248 18.1058 18.7196
1 16.3695 16.8018 18.5285
1 17.6701 16.507 18.9595
1 18.4551 17.5175 19.5711
11 15.6929 15.7445 17.9201
2 14.2612 15.8416 18.0252
3 13.6832 14.5921 17.4112
3 13.4547 13.3269 18.065
9 12.4245 14.2063 17.8054
6 20.9792 20.4449 20.3436
6 20.7041 19.3272 19.1419
6 20.6812 18.8132 20.8204
6 19.3484 20.9974 22.1026
6 18.8447 19.3564 22.3198
6 17.6777 20.5843 21.8797
5 19.4763 20.3406 17.5615
5 19.4623 22.3234 16.1045
5 17.4817 24.5251 19.3359
5 17.9052 22.8323 20.8761
6 19.6216 25.7878 18.1511
6 17.914 26.3554 18.0953
6 19.7798 26.6597 15.7232
6 16.8006 27.3439 16.2312
6 17.7859 27.6067 14.7181
5 16.1715 20.0469 19.2709
5 14.9067 18.4379 18.3146
5 18.0393 15.5138 18.8898
5 19.3693 17.1447 19.9109
6 13.7417 16.6621 17.5604
6 13.998 15.903 19.0933
6 13.8677 14.5138 16.3249
6 13.6676 13.1083 19.1524
6 13.5708 12.3909 17.5075
1 26.8169 23.2979 24.2799
1 25.9016 22.3848 23.7206
1 24.8578 21.9251 24.5313
1 24.6457 22.3809 25.862
1 25.5464 23.3424 26.4517
1 26.5597 23.876 25.6018
2 27.465 24.9243 26.126
1 28.5136 24.3447 27.0693
1 28.4219 24.7339 28.3948
1 29.4288 24.2531 29.2785
1 30.5945 23.5347 28.8449
1 30.6656 23.2204 27.4852
1 29.6432 23.5961 26.6021
8 31.6007 23.2505 29.6779
8 24.0147 20.926 24.1547
5 27.6189 23.6541 23.6217
5 26.1763 21.9456 22.7211
5 23.96 21.8803 26.5899
5 25.4621 23.7651 27.3372
6 26.9516 25.8325 26.44
6 28.0388 25.3024 25.339
5 27.6822 25.3919 28.8518
5 29.2778 24.508 30.2865
5 31.4755 22.6449 27.1239
5 29.7744 23.3557 25.5533
4 31.1873 22.8245 30.4643
4 32.4712 22.7864 29.4207
4 24.1564 20.3726 23.3117
4 23.3513 20.4743 24.761
78
 Atoms. Timestep: 5000
2 19.3247 21.3356 22.3799
2 18.1574 21.7097 21.3908
2 17.0046 22.1614 22.3135
1 18.672 22.8281 20.4381
1 19.4346 22.5648 19.2618
1 19.8135 23.6748 18.4879
1 19.7392 25.002 19.0028
1 19.2069 25.2122 20.2895
1 18.6844 24.1265 20.9465
11 20.0803 25.9635 18.1229
2 19.3601 27.1853 18.176
3 19.5232 27.9067 16.7977
3 18.7045 27.5442 15.5502
9 18.5666 28.7658 16.2648
1 17.6568 20.5084 20.5803
1 16.7978 20.7772 19.4639
1 16.305 19.6873 18.7294
1 16.6154 18.3914 19.0443
1 17.4576 18.1074 20.134
1 17.9381 19.1506 20.9151
11 16.0402 17.401 18.2415
2 15.5713 16.2598 19.0099
3 14.3514 15.5002 18.4472
3 14.3605 14.1049 17.9259
9 13.916 14.3992 19.2414
6 19.7151 22.1841 22.9387
6 20.109 21.093 21.6512
6 19.1125 20.513 23.0275
6 17.3576 22.7375 23.1756
6 16.3206 21.3464 22.7333
6 16.3209 22.8727 21.8227
5 19.5469 21.5167 18.806
5 20.3964 23.5115 17.5709
5 19.2169 26.2644 20.6298
5 18.2085 24.4212 21.8683
6 19.7439 27.9178 18.9891
6 18.2619 27.0576 18.0912
6 20.5076 28.3422 16.7628
6 18.0462 26.6697 15.6869
6 19.0737 27.6421 14.4822
5 16.5452 21.7553 19.1799
5 15.6998 19.9096 17.8264
5 17.6831 17.076 20.2828
5 18.7655 18.9704 21.6426
6 15.3506 16.5312 20.0145
6 16.3862 15.5593 19.0867
6 13.4474 16.1146 18.245
6 15.2101 13.4546 17.9594
6 13.5643 13.7742 17.2878
1 28.3079 21.8927 24.4474
1 27.7316 20.8904 23.566
1 26.4971 21.2102 22.9944
1 26.01 22.549 23.1233
1 26.5717 23.4621 24.0742
1 27.7067 23.113 24.7991
2 28.2275 23.9253 25.9189
1 28.5687 23.2088 27.2255
1 27.7515 22.1827 27.7248
1 28.1568 21.6258 28.9598
1 29.1525 22.2304 29.7436
1 29.9047 23.3584 29.2516
1 29.5239 23.8809 28.0536
8 29.3957 21.7274 31.0039
8 25.8934 20.294 22.2296
5 29.2022 21.657 24.9092
5 28.2611 20.0548 23.2185
5 25.1155 22.7285 22.6728
5 26.0405 24.4799 24.177
6 27.6162 24.7565 26.1713
6 29.0372 24.4901 25.5911
5 26.9635 21.7689 27.104
5 27.6401 20.7413 29.3777
5 30.8008 23.8478 29.7082
5 30.014 24.8492 27.6866
4 29.895 20.8515 31.1121
4 29.9016 22.4049 31.5695
4 26.0753 19.3657 22.4902
4 24.9156 20.2793 22.0941
78
 Atoms. Timestep: 6000
2 19.1679 23.0571 23.7435
2 17.9515 23.1983 22.8932
2 16.8147 23.8664 23.7788
1 18.3982 24.0032 21.6946
1 18.8041 23.2763 20.4986
1 19.2448 23.9156 19.3273
1 19.3287 25.3032 19.2759
1 18.945 26.0652 20.3996
1 18.5626 25.4096 21.6428
11 19.8767 25.7502 18.1838
2 20.0757 27.1441 17.9513
3 20.3263 27.2449 16.4237
3 19.1081 27.4347 15.4609
9 20.0219 28.4684 15.7269
1 17.3556 21.8541 22.3771
1 16.1839 21.8844 21.5819
1 15.7074 20.7119 20.9182
1 16.4251 19.5147 21.0224
1 17.5579 19.4814 21.9084
1 17.9907 20.6207 22.5808
11 16.1225 18.4009 20.2662
2 17.1 18.2084 19.1868
3 16.3809 17.1151 18.4242
3 15.5194 17.5149 17.2479
9 16.8461 16.9672 17.0983
6 19.567 24.0393 23.9898
6 19.9732 22.4192 23.2816
6 18.9181 22.5611 24.6643
6 17.0522 24.8894 24.0033
6 16.567 23.3502 24.637
6 15.8722 23.9221 23.2216
5 18.7024 22.2444 20.3768
5 19.4618 23.2671 18.568
5 18.682 27.1084 20.4158
5 18.2495 25.9938 22.5146
6 20.8704 27.6005 18.4657
6 19.1345 27.6823 18.2874
6 21.3173 26.9177 16.1243
6 18.0581 27.6187 15.8021
6 19.1488 26.8005 14.625
5 15.8041 22.8884 21.4263
5 14.9201 20.824 20.1865
5 18.2595 18.6419 21.7739
5 18.996 20.5579 23.0375
6 18.0921 17.8838 19.4315
6 17.2234 19.0924 18.5891
6 16.3101 16.1837 18.9822
6 15.3286 18.5496 16.9346
6 14.7941 16.7983 16.9079
1 29.0358 20.7821 24.3694
1 29.0085 20.1003 23.1339
1 28.6367 20.8765 22.0222
1 28.0605 22.1433 22.1864
1 28.0665 22.8037 23.4337
1 28.6089 22.0884 24.5456
2 28.7452 22.7541 25.9284
1 28.2078 21.9155 27.0717
1 26.9805 21.238 26.9555
1 26.4461 20.6272 28.1343
1 26.9912 20.7293 29.3886
1 28.2131 21.4363 29.5078
1 28.8095 22.0676 28.3716
8 26.4681 20.2297 30.4641
8 28.5211 20.1929 20.8782
5 29.3562 20.0779 25.1722
5 29.4158 19.0784 23.0233
5 27.64 22.6331 21.2206
5 27.4469 23.6185 23.5244
6 28.2771 23.6794 25.9837
6 29.7903 23.0425 26.0954
5 26.5188 21.171 25.9988
5 25.5204 20.2179 27.9679
5 28.7465 21.5576 30.4295
5 29.6114 22.7084 28.4479
4 25.7138 19.556 30.2549
4 27.1549 19.789 31.0647
4 28.919 19.258 20.8331
4 27.5642 20.0977 20.5538
78
 Atoms. Timestep: 7000
2 18.3974 24.2238 24.3343
2 17.6021 24.1536 22.9989
2 16.2306 24.7291 23.3355
1 18.3976 24.9874 21.9447
1 19.6696 24.5775 21.5845
1 20.3597 25.3091 20.5797
1 19.869 26.4623 20.0429
1 18.5717 26.9192 20.4438
1 17.8539 26.1466 21.3928
11 20.7553 27.0589 19.1054
2 20.3308 28.3396 18.6866
3 21.3838 29.0637 17.8911
3 21.4282 28.8103 16.3956
9 20.9071 29.9357 16.8901
1 17.5337 22.7393 22.4206
1 16.7455 22.5075 21.3325
1 16.709 21.2409 20.6996
1 17.5189 20.1648 21.1308
1 18.3241 20.4058 22.2978
1 18.3871 21.6973 22.9132
11 17.4738 18.8883 20.5611
2 16.5469 18.7388 19.4674
3 16.3186 17.2366 19.153
3 15.7897 16.3366 20.2266
9 15.056 16.6788 19.1134
6 18.4352 25.2838 24.6751
6 19.482 24.0817 24.2107
6 18.0594 23.5798 25.1632
6 16.2744 25.7738 23.6319
6 15.6801 24.1217 24.0029
6 15.5134 24.6169 22.4603
5 20.1071 23.6605 21.9146
5 21.2748 24.8518 20.104
5 18.0313 27.7418 20.0298
5 16.8971 26.518 21.6438
6 20.2424 28.9174 19.5869
6 19.362 28.2684 18.089
6 22.3379 29.2356 18.3343
6 20.7486 28.0763 16.0987
6 22.3823 28.7536 15.8224
5 16.2996 23.3582 20.8574
5 16.0484 21.1601 19.8741
5 18.9368 19.6096 22.6758
5 19.0866 21.8145 23.653
6 16.9245 19.3274 18.6062
6 15.5175 19.1558 19.5702
6 16.9908 16.7619 18.5213
6 15.2545 16.588 21.1327
6 16.1574 15.2833 20.2664
1 29.7721 19.3035 24.0504
1 29.8004 19.484 22.6661
1 29.7948 20.7889 22.1591
1 29.4438 21.9164 22.9827
1 29.2465 21.6895 24.3524
1 29.4341 20.4027 24.872
2 29.2159 20.1733 26.3574
1 27.7326 20.0914 26.6758
1 26.9821 19.0193 26.4245
1 25.577 18.9581 26.6199
1 24.8837 20.0615 27.1305
1 25.6396 21.2811 27.3298
1 27.0364 21.2691 27.0692
8 23.6912 19.9075 27.6308
8 30.0569 21.0112 20.8707
5 29.8969 18.3032 24.4053
5 29.8862 18.6559 22.0378
5 29.3242 22.8664 22.6495
5 28.9197 22.4094 25.1055
6 29.6201 21.0751 26.8385
6 29.7432 19.3215 26.6156
5 27.4995 18.0854 25.9876
5 25.042 18.0285 26.4099
5 25.2236 22.204 27.7121
5 27.6331 22.1604 27.2136
4 23.2703 18.9818 27.6915
4 23.2636 20.4636 28.354
4 29.5289 20.402 20.2784
4 30.2964 21.9244 20.5125
78
 Atoms. Timestep: 8000
2 19.6745 25.0745 25.221
2 18.8305 24.9745 24.0033
2 17.4109 25.4797 24.2864
1 19.5655 25.7708 22.8631
1 20.9122 25.4647 22.5081
1 21.7325 26.2388 21.6676
1 21.1792 27.3752 21.0256
1 19.7877 27.5488 21.0931
1 18.9738 26.8445 22.078
11 22.1232 28.1785 20.4289
2 21.6086 29.4358 19.8737
3 22.6878 30.1673 19.1793
3 23.2741 29.5632 17.9055
9 22.5917 30.7792 17.9142
1 18.6982 23.473 23.5128
1 18.6157 23.1481 22.1734
1 18.2923 21.8658 21.747
1 18.1237 20.8364 22.687
1 18.1642 21.1615 24.0097
1 18.4207 22.4619 24.4789
11 17.8224 19.5521 22.3118
2 17.8375 19.1941 20.8775
3 17.749 17.6379 20.7485
3 16.3182 16.9706 21.0581
9 16.9227 17.0839 19.7703
6 19.9948 26.1087 25.2716
6 20.5376 24.3991 25.1643
6 19.2274 24.793 26.124
6 17.4503 26.4382 24.7409
6 16.8559 24.7774 24.8934
6 16.8113 25.5436 23.3607
5 21.4195 24.599 22.9017
5 22.7712 26.0245 21.6603
5 19.4049 28.4423 20.5371
5 17.993 27.2327 22.2869
6 21.1766 30.0826 20.6885
6 20.8182 29.1133 19.182
6 23.3801 30.6864 19.851
6 22.8753 28.6211 17.3822
6 24.3148 29.6277 17.8593
5 18.6972 23.8954 21.4027
5 18.1102 21.8132 20.6869
5 18.0027 20.3687 24.7585
5 18.1794 22.5823 25.5266
6 18.7407 19.587 20.4245
6 16.9369 19.6025 20.4554
6 18.641 17.1131 20.9728
6 15.441 17.5957 21.2301
6 16.2554 16.006 21.5617
1 28.6559 18.7786 23.6412
1 29.6517 19.334 22.7725
1 30.0099 20.6706 22.7156
1 29.2464 21.6078 23.4488
1 28.2489 21.1525 24.3331
1 27.903 19.7594 24.4285
2 27.019 19.349 25.5608
1 25.5589 19.4874 25.0851
1 25.1127 18.8544 23.962
1 23.7191 18.918 23.5805
1 22.8871 19.7929 24.2766
1 23.3521 20.37 25.471
1 24.6587 20.2505 25.9252
8 21.6417 20.1035 23.92
8 30.9866 21.0153 21.973
5 28.4053 17.7484 23.8205
5 30.312 18.6473 22.182
5 29.6175 22.6784 23.5678
5 27.7158 21.8845 24.9687
6 27.2367 19.8617 26.529
6 27.2851 18.2661 25.8508
5 25.7094 18.2423 23.3741
5 23.3324 18.3445 22.7742
5 22.6111 20.9279 25.9916
5 24.9191 20.7657 26.913
4 21.5289 20.2847 22.9067
4 21.2849 20.9552 24.3808
4 31.4211 20.2741 21.4285
4 30.7439 21.6983 21.2624
78
 Atoms. Timestep: 9000
2 20.8027 24.5811 26.7603
2 19.9898 25.0039 25.5005
2 18.9165 25.966 26.0538
1 20.9466 25.6682 24.5179
1 22.1974 25.1227 24.1518
1 23.0253 25.6495 23.1637
1 22.5835 26.7164 22.355
1 21.4385 27.3629 22.8063
1 20.6346 26.8574 23.8273
11 23.452 27.0135 21.3872
2 23.2245 28.2168 20.7014
3 24.1871 28.2663 19.4468
3 23.6678 28.0042 18.0153
9 23.7893 29.3406 18.4932
1 19.3476 23.7566 24.7783
1 19.1173 23.7533 23.4283
1 18.6459 22.6713 22.7035
1 18.366 21.502 23.4364
1 18.5039 21.448 24.8476
1 19.0063 22.57 25.5108
11 17.7997 20.3954 22.7218
2 18.3747 20.0858 21.419
3 17.3964 19.0397 20.7676
3 16.0545 19.4493 20.1473
9 17.225 19.1697 19.3749
6 21.2678 25.5008 27.1284
6 21.5108 23.7925 26.5608
6 20.1543 24.1156 27.5366
6 19.4012 26.8354 26.4488
6 18.4208 25.3188 26.7853
6 18.1355 26.2097 25.4017
5 22.6931 24.2866 24.6669
5 24.0252 25.1413 22.9468
5 21.1198 28.2691 22.2904
5 19.6215 27.2787 24.029
6 23.2173 29.1397 21.3203
6 22.2743 28.1918 20.2033
6 25.234 28.1779 19.6722
6 22.6302 27.6759 17.8651
6 24.443 27.5073 17.4263
5 19.252 24.7005 22.9032
5 18.4844 22.7505 21.6463
5 18.1661 20.5444 25.3405
5 19.2205 22.4815 26.5364
6 19.3544 19.6441 21.4746
6 18.3572 20.9025 20.7492
6 17.4783 18.0353 21.129
6 15.5954 20.4432 20.2136
6 15.2494 18.7636 20.1849
1 27.6175 19.5171 22.4908
1 28.7973 19.9538 23.026
1 28.8478 20.3484 24.4334
1 27.7543 20.1925 25.328
1 26.6174 19.5714 24.7587
1 26.5512 19.2445 23.3988
2 25.188 18.6816 22.8686
1 24.2047 19.7504 22.5292
1 24.5638 20.6796 21.5814
1 23.8414 21.8412 21.2492
1 22.7018 22.07 22.0225
1 22.3078 21.2295 23.095
1 23.0211 20.0447 23.2957
8 21.9363 23.1336 21.6593
8 29.9729 20.8579 24.9658
5 27.472 19.2425 21.4821
5 29.5019 20.2562 22.3468
5 27.7559 20.5706 26.3124
5 25.794 19.4132 25.427
6 24.8858 17.8872 23.5654
6 25.5252 18.105 21.9862
5 25.503 20.5756 21.0355
5 24.0747 22.4272 20.3023
5 21.3868 21.3929 23.6797
5 22.7671 19.3418 24.0588
4 22.2361 23.8755 21.0706
4 21.2309 23.4404 22.2719
4 30.8717 20.6352 24.5804
4 29.8883 21.8398 25.0562
78
 Atoms. Timestep: 10000
2 20.9243 24.1707 26.9475
2 20.6442 24.8806 25.6633
2 19.8359 26.109 26.0616
1 21.8046 25.4699 24.9027
1 23.1404 25.1049 25.2713
1 24.2566 25.6621 24.6036
1 24.1064 26.5137 23.4634
1 22.7822 26.8328 23.0588
1 21.6903 26.2726 23.6895
11 25.2269 26.7877 22.734
2 25.2643 28.111 22.1867
3 26.6282 28.2817 21.5492
3 26.7933 27.6349 20.1697
9 26.6527 29.0653 20.3336
1 19.8845 23.8693 24.836
1 18.477 23.9084 24.677
1 17.7989 22.8889 23.9512
1 18.5518 21.8577 23.3902
1 19.9306 21.8689 23.459
1 20.6231 22.8284 24.2084
11 18.0067 20.8929 22.5976
2 16.5699 20.7052 22.4407
3 16.3278 19.626 21.366
3 15.2593 18.5921 21.6509
9 15.043 19.6869 20.723
6 21.3665 24.903 27.6457
6 21.6752 23.4123 26.8004
6 19.9187 23.8751 27.3635
6 20.4455 26.8559 26.6174
6 19.0593 25.788 26.7572
6 19.3875 26.6396 25.265
5 23.3249 24.5009 26.1352
5 25.2314 25.3365 24.8288
5 22.6349 27.4559 22.1977
5 20.7366 26.4099 23.2531
6 24.9592 28.7625 22.9994
6 24.6689 28.1658 21.385
6 27.5553 28.3444 22.1013
6 26.0065 27.0025 19.9324
6 27.7771 27.142 19.9047
5 17.9286 24.7097 25.1201
5 16.8163 23.0192 23.6316
5 20.4581 21.1089 22.9502
5 21.6965 22.8416 24.1987
6 15.9502 21.5987 22.2488
6 16.1616 20.397 23.4067
6 17.1872 19.2986 20.8084
6 14.8807 18.6762 22.638
6 15.2162 17.5873 21.1961
1 26.722 19.7578 22.1541
1 27.3487 19.5524 23.3293
1 26.6641 19.1879 24.5249
1 25.3299 18.8488 24.4105
1 24.6438 19.0202 23.2015
1 25.3105 19.4431 22.0446
2 24.5823 19.4244 20.673
1 23.8781 20.7161 20.4642
1 24.5437 21.909 20.754
1 23.7819 23.0867 20.7996
1 22.3869 23.09 20.6227
1 21.7733 21.8837 20.1572
1 22.4839 20.6819 20.1582
8 21.6545 24.1773 20.8914
8 27.2405 19.2358 25.7289
5 27.314 20.0283 21.2911
5 28.4392 19.688 23.4936
5 24.8285 18.5412 25.3464
5 23.6131 18.728 23.209
6 23.8713 18.568 20.6276
6 25.2923 19.2415 19.9
5 25.617 21.9711 20.9288
5 24.3701 23.9597 21.1123
5 20.7455 21.9077 19.947
5 21.9102 19.74 19.8365
4 21.7521 24.7209 21.7527
4 20.6585 23.9908 20.8482
4 28.0482 19.8942 25.7743
4 26.5625 19.5618 26.4387
78
 Atoms. Timestep: 11000
2 21.274 24.0884 27.721
2 21.0217 25.0258 26.4654
2 20.3375 26.3019 27.0835
1 22.2543 25.5928 25.6608
1 23.5367 25.1004 25.9168
1 24.6039 25.5381 25.169
1 24.4377 26.4638 24.1156
1 23.1923 27.0911 24.055
1 22.0794 26.536 24.6874
11 25.5679 26.8582 23.428
2 25.4124 27.639 22.3126
3 26.8023 27.8804 21.8223
3 27.2233 27.5501 20.3683
9 27.0019 28.8682 20.806
1 20.1913 24.2948 25.3811
1 18.8048 24.3851 25.3789
1 18.048 23.6267 24.4614
1 18.6979 22.7668 23.5754
1 20.0876 22.5036 23.6631
1 20.8323 23.2785 24.6107
11 18.1419 22.1135 22.4918
2 16.7609 22.4243 22.2439
3 16.2697 22.0254 20.8301
3 16.487 20.67 20.1899
9 15.1862 21.1577 20.6244
6 21.9737 24.4862 28.471
6 21.807 23.1306 27.5184
6 20.3346 23.8743 28.211
6 20.9464 26.7693 27.8737
6 19.4335 25.9523 27.6264
6 19.9397 26.9895 26.3445
5 23.6865 24.3349 26.6125
5 25.6085 25.0691 25.2911
5 23.0172 27.9129 23.3448
5 21.1448 26.9939 24.4284
6 24.8723 28.6448 22.3565
6 24.8245 27.231 21.5592
6 27.4969 27.8062 22.604
6 26.4764 27.079 19.7449
6 28.2537 27.2127 20.2395
5 18.3126 25.0469 26.0937
5 16.9911 23.8235 24.5604
5 20.6237 21.8268 23.0192
5 21.9105 23.0861 24.8397
6 16.7361 23.5561 22.2483
6 16.1167 21.909 23.0156
6 16.5347 22.7932 20.1091
6 17.1064 19.9561 20.6954
6 16.5379 20.6772 19.0756
1 26.2152 18.1198 21.8525
1 25.9911 16.9234 22.5243
1 24.6734 16.5847 22.9462
1 23.604 17.4966 22.7312
1 23.8731 18.7281 21.9644
1 25.1806 19.0126 21.5589
2 25.3994 20.1417 20.5764
1 24.5819 21.3924 20.7572
1 24.5637 22.0737 21.9691
1 23.6993 23.1411 22.1567
1 22.7563 23.5152 21.1543
1 22.7365 22.8358 19.9008
1 23.7129 21.8458 19.7285
8 21.8756 24.4268 21.495
8 24.4468 15.3072 23.3867
5 27.1263 18.3913 21.4366
5 26.8849 16.2308 22.7033
5 22.5844 17.3193 22.9768
5 22.9833 19.4406 21.7044
6 25.1979 19.7521 19.6258
6 26.4348 20.4393 20.4845
5 25.2624 21.8593 22.7195
5 23.6031 23.5819 23.0845
5 22.0544 23.1961 19.1401
5 23.7439 21.3239 18.8594
4 21.755 24.8391 22.4243
4 20.9229 24.1598 21.2284
4 25.1524 14.5761 23.3788
4 23.5302 15.0002 23.697
78
 Atoms. Timestep: 12000
2 21.8991 22.5616 28.5981
2 21.2426 23.9138 28.0845
2 20.3927 24.6524 29.1651
1 22.2859 24.8773 27.614
1 23.6504 24.6518 27.8559
1 24.6363 25.4766 27.2624
1 24.3052 26.7129 26.6866
1 22.9591 27.0522 26.6541
1 21.9306 26.1465 27.0953
11 25.3715 27.4777 26.2629
2 25.0501 28.4773 25.3374
2 24.7059 28.1111 23.8562
2 24.946 26.6902 23.1961
10 23.2819 28.2313 23.7679
1 20.4643 23.4891 26.841
1 19.0797 23.7467 26.8077
1 18.3653 23.3697 25.6504
1 19.0269 22.6779 24.6232
1 20.3663 22.2648 24.7494
1 21.0915 22.7392 25.8054
11 18.3178 22.6669 23.4971
2 18.9352 22.2178 22.3355
3 17.8489 22.3893 21.2851
3 17.6866 23.7437 20.6254
9 18.2347 22.6614 19.9456
6 22.5059 22.7996 29.4677
6 22.5889 22.0611 27.9511
6 21.0997 21.9417 28.962
6 20.9994 25.1078 29.9304
6 19.7068 23.9654 29.63
6 19.853 25.473 28.6638
5 24.0279 23.7924 28.4553
5 25.6669 25.2543 27.4414
5 22.6072 27.9565 26.1804
5 20.869 26.4267 27.0381
6 26.0146 29.0436 25.2932
6 24.4422 29.2526 25.7702
6 25.2178 28.8837 23.2626
6 26.0183 26.5081 23.1946
6 24.5562 26.6734 22.2218
5 18.5298 24.2598 27.5913
5 17.3509 23.6938 25.5767
5 20.8318 21.7632 23.9098
5 22.1546 22.607 25.8144
6 19.2492 21.1896 22.4059
6 19.7468 22.8513 22.0323
6 16.9521 21.7637 21.4623
6 18.4361 24.5451 20.7121
6 16.6637 24.0443 20.4088
1 25.1576 18.4788 22.2388
1 24.2217 17.5634 22.6985
1 22.8367 17.9106 22.7503
1 22.4262 19.2402 22.555
1 23.4091 20.1755 22.1373
1 24.7451 19.7666 21.7922
2 25.8685 20.7996 21.4884
1 25.4214 22.0803 22.1242
1 25.9037 22.3964 23.4185
1 25.4122 23.5473 24.0304
1 24.4175 24.3396 23.3967
1 24.0999 24.1054 22.0419
1 24.5466 22.9341 21.4282
8 24.2058 25.5878 23.8798
8 21.9647 17.0059 23.2747
5 26.2079 18.1448 22.2683
5 24.4944 16.5936 23.043
5 21.4323 19.5621 22.7725
5 23.1057 21.2041 22.2
6 26.0346 21.0162 20.4105
6 26.8206 20.4798 21.9246
5 26.5707 21.7111 23.9354
5 25.6798 23.9056 25.0012
5 23.4139 24.8077 21.5496
5 24.1113 22.6336 20.4802
4 24.3828 25.6606 24.881
7 22.9955 27.3157 23.5474
4 22.3979 16.2156 23.7158
4 21.0902 17.2904 23.6769
78
 Atoms. Timestep: 13000
2 20.7233 21.5104 29.6215
2 20.4167 22.9395 29.1132
2 19.5372 23.4257 30.2753
1 21.7221 23.8218 28.9695
1 22.9884 23.6479 29.6324
1 24.0414 24.5871 29.5467
1 23.8055 25.7921 28.8447
1 22.5201 25.9989 28.2675
1 21.5048 25.0509 28.358
11 24.7526 26.7927 28.7932
2 24.6541 28.0956 28.0773
2 25.1313 28.2155 26.6277
2 25.9696 27.0699 25.844
10 24.0649 28.4952 25.8308
1 19.8506 22.956 27.6416
1 18.5155 23.2533 27.2576
1 18.0854 22.9474 25.9414
1 18.9429 22.3096 25.0424
1 20.3467 22.3288 25.2874
1 20.7772 22.6316 26.614
11 18.2882 21.9192 23.9316
2 18.4792 20.5826 23.5907
2 18.5092 20.3279 22.0911
2 19.512 21.2326 21.4847
10 18.6025 18.9611 22.0621
6 21.2572 21.4525 30.5815
6 21.3259 21.002 28.8657
6 19.8117 20.9186 29.7936
6 20.0133 23.2835 31.2791
6 18.626 22.8451 30.327
6 19.2281 24.4249 30.0936
5 23.1415 22.7637 30.2296
5 24.9829 24.5358 30.059
5 22.2611 26.8985 27.7899
5 20.5457 25.2467 27.9055
6 25.3807 28.6927 28.6423
6 23.6176 28.4929 28.2618
6 25.7679 29.1036 26.6156
6 26.9087 26.8429 26.3362
6 26.1567 27.5109 24.8975
5 17.7695 23.5276 27.9612
5 17.0344 22.9552 25.7033
5 21.0808 21.9408 24.5959
5 21.8167 22.4426 26.9065
6 17.6823 20.0125 24.0594
6 19.4281 20.3574 24.0727
6 17.6251 20.5747 21.5158
6 19.8042 22.1042 22.0716
6 19.3421 21.6531 20.4416
1 24.2694 19.71 21.909
1 22.8503 19.6541 21.6349
1 22.1422 20.8238 21.3248
1 23.0107 21.8409 20.8646
1 24.4324 21.8955 21.0082
1 25.0214 20.8992 21.8204
2 26.2423 21.0623 22.8609
1 26.0244 22.3921 23.6482
1 26.3636 23.6213 23.0841
1 25.9839 24.7959 23.7439
1 25.2907 24.7982 24.9817
1 24.7764 23.587 25.4675
1 25.1918 22.4146 24.8044
8 25.1297 25.9003 25.7667
8 20.8317 20.5551 21.1303
5 24.782 18.8598 22.3187
5 22.3759 18.6749 21.6152
5 22.4154 22.6021 20.3943
5 24.8903 22.798 20.6745
6 27.159 21.1783 22.2583
6 26.3135 20.18 23.5237
5 26.8123 23.5784 22.0877
5 26.4093 25.6828 23.272
5 24.2725 23.4419 26.4072
5 24.8124 21.4813 25.2201
4 24.9466 25.5926 26.7012
7 23.8219 27.6324 25.4507
7 18.9048 18.6186 22.9555
4 21.0295 19.9656 21.8797
78
 Atoms. Timestep: 14000
2 20.5757 21.1727 30.0825
2 20.4081 22.3594 29.1135
2 19.1547 23.1746 29.6209
1 21.6258 23.3145 29.0558
1 22.7512 23.1272 29.9066
1 23.9622 23.8673 29.7238
1 23.9749 24.8858 28.7548
1 22.8332 25.1473 27.9699
1 21.6874 24.3465 28.1009
11 24.9387 25.8195 28.6963
2 24.4965 27.1718 29.0414
2 24.9876 28.2205 28.0141
2 26.5209 28.2472 27.7076
10 24.1763 28.0347 26.9169
1 20.3185 21.8326 27.6393
1 19.2142 22.1451 26.7738
1 19.1933 21.7786 25.4008
1 20.3034 21.0265 24.8672
1 21.4013 20.7817 25.7256
1 21.4275 21.1239 27.1016
11 20.3865 20.8787 23.4588
2 20.9223 19.7027 23.0124
2 21.1236 19.8531 21.4877
2 22.0683 21.0521 20.9509
10 21.3944 18.4962 20.968
6 20.851 21.4707 31.1134
6 21.3426 20.4881 29.7337
6 19.6534 20.5776 30.1618
6 19.2952 23.6434 30.5787
6 18.3843 22.406 29.6818
6 18.8676 23.9357 28.9088
5 22.6859 22.413 30.6976
5 24.7833 23.7138 30.4419
5 22.8239 25.9168 27.2166
5 20.8321 24.5422 27.4526
6 25.0975 27.468 29.922
6 23.4731 27.178 29.3887
6 24.8382 29.1865 28.4776
6 27.0337 28.7312 28.5307
6 26.6188 28.8977 26.8275
5 18.3498 22.7032 27.1088
5 18.2914 21.9739 24.8093
5 22.3006 20.4014 25.2374
5 22.3256 21.0095 27.69
6 20.3208 18.7972 23.3516
6 21.9142 19.4658 23.419
6 20.1238 20.2024 21.2326
6 21.7913 21.9025 21.5542
6 21.7856 21.161 19.8449
1 26.6534 21.2512 22.7018
1 25.5652 20.629 22.0991
1 24.4553 21.2804 21.597
1 24.4013 22.6481 21.6993
1 25.4692 23.3819 22.1862
1 26.5743 22.6456 22.7624
2 27.7568 23.4579 23.0591
1 27.5119 24.4646 24.18
1 27.4714 25.8623 23.9207
1 27.3287 26.7463 25.0496