LAMMPS data file via write_data, version 2 Aug 2023, timestep = 30000, units = real

78 atoms
11 atom types
82 bonds
16 bond types
142 angles
33 angle types
210 dihedrals
45 dihedral types
46 impropers
19 improper types

10.109481031718811 40.24986896828122 xlo xhi
11.137398981281892 42.04299101871812 ylo yhi
11.653569687390906 40.920850312609055 zlo zhi

Masses

1 12.011
2 12.011
3 12.011
4 1.008
5 1.008
6 1.008
7 1.008
8 14.007
9 15.999
10 15.999
11 15.999

Pair Coeffs # lj/cut/coul/cut

1 0.07 3.55
2 0.066 3.5
3 0.083 3.45
4 0 0
5 0.03 2.42
6 0.03 2.5
7 0 0
8 0.17 3.3
9 0.14 2.9
10 0.17 3.12
11 0.14 2.9

Bond Coeffs # harmonic

1 469 1.4
2 317 1.51
3 367 1.08
4 481 1.34
5 450 1.364
6 268 1.529
7 280 1.51
8 340 1.09
9 382 1.448
10 320 1.41
11 320 1.41
12 260 1.52
13 340 1.088
14 320 1.41
15 434 1.01
16 553 0.945

Angle Coeffs # harmonic

1 63 120
2 70 120
3 35 120
4 70 120
5 70 120
6 40 109.5
7 63 114
8 35 109.5
9 50 116
10 35 116
11 75 111
12 58.35 112.7
13 37.5 110.7
14 56.2 109.47
15 50 109.5
16 50 109.5
17 37.5 117.2
18 35 114.3
19 37.5 117.2
20 35 109.5
21 55 108.5
22 37.5 110.7
23 50 109.5
24 37.5 117.2
25 50 90
26 60 90
27 43.6 106.4
28 33 107.8
29 35 109.5
30 35 109.5
31 35 109.5
32 35 114.3
33 37.5 117.2

Dihedral Coeffs # opls

1 0 7.25 0 0
2 0 7.25 0 0
3 0 7.25 0 0
4 0 7.25 0 0
5 0 7.25 0 0
6 0 0 0 0
7 0 0 0 0
8 0 0 0 0
9 -7.582 3.431 3.198 0
10 0 2.03 0 0
11 0 3 0 0
12 0 0 0 0
13 0 0 0.462 0
14 0.416 -0.128 0.695 0
15 0 0 0.56 0
16 0.65 -0.25 0.67 0
17 0.65 -0.25 0.67 0
18 0 0 0.76 0
19 0 7.25 0 0
20 0 0 0.3 0
21 2.392 -0.674 0.55 0
22 1.711 -0.5 0.663 0
23 -0.19 -0.417 0.418 0
24 -0.356 -0.174 0.492 0
25 0 0 0 0
26 0 0 0.3 0
27 0 0 0 0
28 0 0 0 0
29 0 0 0.4 0
30 0 7.25 0 0
31 0 7.25 0 0
32 0 7.25 0 0
33 0 0 0.3 0
34 -1.013 -0.709 0.473 0
35 0 0 0.468 0
36 0 0 0.468 0
37 0 0 0.468 0
38 0 0 0.352 0
39 0 0 0.3 0
40 0 0 0.468 0
41 0 0 0 0
42 0 0 0 0
43 8 0 0 0
44 -0.55 0 0 0
45 4.319 0 0 0

Improper Coeffs # cvff

1 2.5 -1 2
2 2.5 -1 2
3 2.5 -1 2
4 2.5 -1 2
5 0 -1 2
6 0 -1 2
7 0 -1 2
8 0 -1 2
9 0 -1 2
10 0 -1 2
11 0 -1 2
12 0 -1 2
13 0 -1 2
14 0 -1 2
15 0 -1 2
16 0 -1 2
17 0 -1 2
18 0 -1 2
19 0 -1 2

Atoms # full

37 1 6 0.0973 13.835967282019324 24.766028225174537 26.87145751470464 1 0 0
36 1 6 0.0973 14.146546632912152 23.331550701475834 26.02672319344479 1 0 0
10 1 11 -0.2919 12.848077449805336 22.985225143969828 27.45905081375938 1 0 0
11 1 2 0.0053 13.31438521971221 23.89931756392352 26.46380557721106 1 0 0
38 1 6 0.1109 12.746112399383177 24.816485625958215 24.593374466118963 1 0 0
14 1 10 -0.5796 11.483756943008695 25.5584874322697 26.00074419592295 1 0 0
12 1 2 0.064 12.263649155252747 24.469979276423754 25.47027994647169 1 0 0
34 1 5 0.1568 12.858753134415604 25.48711885757226 28.779034471314624 1 0 0
35 1 5 0.1501 11.934921269676401 25.956364809455625 30.886428891864753 1 0 0
8 1 1 -0.1488 12.506847997330482 24.621293133249644 29.308269365775338 1 0 0
9 1 1 -0.1327 11.96723998059719 24.92002279067499 30.558712990800835 1 0 0
33 1 5 0.1568 11.514200061205937 21.37201561148731 28.957736236982395 1 0 0
7 1 1 0.1328 12.324466561540882 23.37251752776066 28.675334143648527 1 0 0
6 1 1 -0.1488 11.605819318171811 22.377564603654534 29.350522907675234 1 0 0
5 1 1 -0.1327 11.116347303927316 22.660578940053778 30.596992347834856 1 0 0
4 1 1 -0.0722 11.181694995722763 23.915468961890383 31.237521106338793 1 0 0
68 1 5 0.1564 32.927282174822324 22.46564002820331 28.126728868348266 0 0 0
54 1 1 -0.1279 33.524551518135155 21.625545621561987 28.368823637143773 0 0 0
53 1 1 -0.1686 33.268110530855765 20.86274413264227 29.55396332595667 0 0 0
67 1 5 0.1525 32.44745274788316 21.137301939497384 30.095208732788556 0 0 0
71 1 5 0.1564 36.30189552084491 22.49228017441201 24.003639712945514 0 0 0
59 1 1 -0.1686 38.17515238657157 22.993414535505664 24.95427210426514 0 0 0
58 1 1 -0.1279 36.800028846187274 22.63383090701508 24.950935934721304 0 0 0
13 1 2 0.008999999999999999 11.12866051474067 23.41777098343871 25.09960024271397 1 0 0
75 1 4 0.418 10.745793341282328 23.069976161841154 27.078852013289723 1 0 0
39 1 6 0.103 11.531072779335897 22.40281810913988 24.780317377009112 1 0 0
63 1 8 -0.8143 10.180967691300989 23.25776402112818 26.248684594188656 1 0 0
40 1 6 0.103 10.609915132783216 23.77262984032489 24.228885555602613 1 0 0
76 1 7 0.4358 10.618630770924494 25.156694855412603 26.178736342059786 1 0 0
60 1 1 0.1444 38.95113318358122 23.12514762350525 26.14531192908448 0 0 0
72 1 5 0.1525 38.653492252430375 22.990784125242108 23.948164834279265 0 0 0
69 1 6 0.1928 33.96068570825723 22.766755787277734 26.036910977091594 0 0 0
70 1 6 0.1928 34.71304322043271 21.178721436147214 25.4764937596633 0 0 0
51 1 1 -0.1686 35.1113487339676 19.373077730081814 29.006863885438303 0 0 0
55 1 1 -0.0803 34.48716231911695 21.178441150907364 27.494785269717237 0 0 0
50 1 1 -0.1279 35.270925512352854 20.038954478158864 27.821668779942588 0 0 0
65 1 5 0.1564 36.07140333740735 19.602906862054418 27.175202727156655 0 0 0
66 1 5 0.1525 35.69556354948055 18.463160160562552 29.27371501697969 0 0 0
56 1 2 -0.3676 34.727667256498535 21.957384053022007 26.240783930547117 0 0 0
52 1 1 0.1444 33.97399247006613 19.67739030430698 29.824149046421134 0 0 0
32 1 5 0.1501 10.565224965096236 21.943035666657394 31.030941493690047 1 0 0
57 1 1 -0.0803 36.14636116490708 22.508651381907733 26.15959881714394 0 0 0
62 1 1 -0.1279 36.812779342439214 22.963210448579016 27.34346989989397 0 0 0
74 1 5 0.1564 36.280284122286304 23.02212722030523 28.323806655121928 0 0 0
73 1 5 0.1525 38.55802761923782 23.592701373336222 28.32855464898295 0 0 0
61 1 1 -0.1686 38.1983733044012 23.21821075038484 27.349545751258404 0 0 0
26 1 6 0.09 12.354806426994658 24.58759238422865 33.630573210377165 1 0 0
29 1 6 0.0906 10.864021586169375 26.287920212960955 32.77701859173281 1 0 0
3 1 2 -0.2279 40.147862699371345 25.618686651963188 32.73486046700865 0 0 0
31 1 6 0.0906 39.73865794556068 25.899703063927987 31.801056936799636 0 0 0
30 1 6 0.0906 39.39299994740164 25.734606630795493 33.53047112364233 0 0 0
2 1 2 0.031 10.424260266524328 24.19637761862831 32.55596056523454 1 0 0
28 1 6 0.09 11.00278610392339 24.217833382033987 34.662965786742575 1 0 0
1 1 2 -0.2214 11.446367303486356 23.981420394319073 33.67716442780442 1 0 0
27 1 6 0.09 11.761226001933736 22.954781920421574 33.64335243613991 1 0 0
49 1 6 0.103 32.449124368347185 19.042269040989034 32.56858744053421 0 0 0
77 1 7 0.4358 34.09641719132493 17.282174398572096 32.98683361758624 0 0 0
64 1 8 -0.8143 33.686103414442854 18.9040397137827 30.89364878570651 0 0 0
16 1 1 -0.1129 39.04297478454815 22.684872323326836 34.057341951170955 0 0 0
15 1 1 -0.0916 39.34192820401579 23.229084676741685 32.7784641919416 0 0 0
44 1 5 0.1482 38.55193141460474 23.405762322297306 30.735971378437874 0 0 0
17 1 1 -0.1761 37.84353305574246 22.02230564836117 34.24761316664411 0 0 0
20 1 1 -0.1129 38.39337468704232 23.02478631113972 31.74926447864371 0 0 0
21 1 11 -0.2919 35.68845334438124 21.135492841551777 33.4273012388785 0 0 0
18 1 1 0.1328 36.8469180900216 21.884600207689957 33.249587677380916 0 0 0
19 1 1 -0.1761 37.147392519136254 22.406341976714366 31.994077184800243 0 0 0
24 1 2 0.008999999999999999 33.372535646499415 19.464793500714244 32.193904522387754 0 0 0
43 1 5 0.1544 36.41986745960704 22.22794497979195 31.21896475849642 0 0 0
48 1 6 0.103 33.20804611783039 20.535625631228207 32.238587485074156 0 0 0
41 1 5 0.1482 39.66236073606136 22.81197559648928 34.908928127294026 0 0 0
78 1 4 0.418 34.540383038802815 18.379411852122708 31.0712653773005 0 0 0
46 1 6 0.0973 36.062945176580016 19.952716778781905 31.758135818573766 0 0 0
23 1 2 0.064 34.59953308092315 19.072605031292987 33.061084485566525 0 0 0
42 1 5 0.1544 37.68901533033063 21.685067599792802 35.28303022608802 0 0 0
22 1 2 0.0053 35.87010900662159 19.872186947455663 32.88512544505183 0 0 0
47 1 6 0.1109 34.361675346451094 19.1632880699197 34.112979826209404 0 0 0
25 1 10 -0.5796 34.921403975464955 17.694454723511654 32.77045621028487 0 0 0
45 1 6 0.0973 36.67388723284893 19.300015964499924 33.258866812697846 0 0 0

Velocities

37 0.008205716388646929 0.00692168564793404 -0.004022098503427033
36 0.0006207247811324618 0.02081442714222591 -0.0053025815200412555
10 0.006190184176378537 0.0001234488668385107 0.0048099448591327545
11 0.010349550326053203 -0.0029313048023443954 0.0035681561038035654
38 -0.006368130317584634 0.0026735534600477078 -0.0008096770042599446
14 0.007638737244852257 -0.0021030148284435484 0.0020147665809548917
12 0.0004405040230624797 0.0018592941868007477 0.0035928232111432632
34 0.0353132298588051 0.01658181758031564 0.008158832959679316
35 -0.005448759454957825 -0.010249207945817147 0.009988931645855481
8 0.0006789586342821619 0.003949189209935887 -0.0066859255071659495
9 -0.002270038894807936 0.004137681288829196 -0.0074138153038332336
33 -0.0032696515168283455 0.02457303985748061 -0.009923102907318047
7 0.0018192194778242259 0.0045064891200954 -0.007220665382855975
6 -0.0038491226249750187 -9.761108053351434e-05 -0.0008289630889398242
5 0.0001800971724437309 0.01201080446660793 0.0060702222486858975
4 -0.00277728024984962 -0.007901680337224165 -0.008051549186066346
68 -0.013080708941871681 0.0005490947670694184 -0.01248284986624145
54 -0.0004416812084746991 -0.0012969481196136094 -0.0004689150991657568
53 -0.0035865059217308594 -0.008205497926264495 -0.0021943493723181077
67 0.01144862064882626 -0.011432545942405694 -0.007235887956942129
71 0.011311845819812063 -0.006791092644617573 0.0025939691791473244
59 -0.004668481326130537 -0.003681824582244661 -0.0015026880770238726
58 0.003533728248792401 0.004022627285530068 0.0004315805684900687
13 0.0013142139438367486 0.0035186436359569044 -0.003035475432767162
75 0.004058117453962682 0.011501999275554934 0.012503376020149136
39 -0.006635699720600935 -0.010973158751970774 -0.0027309574077558196
63 0.003165966124839092 0.0043878964919404325 0.0027361751735193794
40 0.005409532974805993 0.027803355152836225 -0.013685093644370833
76 0.013076824207750335 0.014874050287300506 0.0038087006522865793
60 -0.005739292916757085 0.0025177061982781675 -0.008257819340529333
72 -0.01661697513037695 0.020165784670042798 0.0010393754163753076
69 -0.0072170942990442705 0.008379677174990455 0.0012893969528489189
70 -0.001320545111220633 0.017115202696521295 -0.008706629960609788
51 0.001582696204748176 0.0051325479078651705 0.0024241836746712667
55 0.008582622657224967 -0.0025687661703413197 0.0009394122129689756
50 -0.0032088487355022193 -0.005498659979321652 -0.0009542918529796613
65 -0.011748964582680241 -0.008400452462561492 -0.0003869538322293588
66 -0.014872600779468337 0.009421505369792197 0.00013542544329984106
56 0.0015579768645675948 0.004170941746667972 0.0016666563190923772
52 0.002968120965366586 -0.010047327324897187 -0.0032243857733953944
32 0.002266382064051345 -0.017481566288274082 -0.005955320229743598
57 -0.0010923167322207201 0.00107491216844394 -0.0016910652963088332
62 0.00033124624084432695 -0.0053142245800430025 0.004606759552433189
74 -0.004424683863253687 -0.0032970060032011285 -0.029760158850113672
73 0.010217022498938785 -0.024878982547772967 -0.017480740685316767
61 0.0078739417710348 0.0006570489413300515 0.0047068954351948
26 0.004425033595065891 -0.01343725556579471 -0.014853030410872697
29 -0.01711754754981758 -0.00433374793126979 0.006883359105882382
3 0.003901396425876504 0.0026937021123764255 -0.00380274199516456
31 0.00917303315046276 0.002597537684522236 -0.005339085906681906
30 0.03699163830646034 -0.009598742023709065 0.004977848614185202
2 -0.001770920488820609 0.0023023286530985823 -0.0005518939011118819
28 0.017568743386500184 -0.010094708078390064 0.03168735143978582
1 0.002088774993827824 -0.004277597910149106 0.008201252258993487
27 -0.003612774868532343 0.016037663022570165 -0.017389057577974112
49 -0.010999021043718069 0.019277401855936342 0.015806083987097035
77 0.0379552719216954 -0.01746497963324286 -0.010601258086307491
64 -0.0018568410311016789 -0.0020725946658333976 0.000108362667573499
16 -0.0030541591301209833 0.008120131523421392 0.002075578816941468
15 -0.0013883051285206644 -0.004451544350611897 0.008948342725106084
44 -0.0013368666233176583 0.02581841998392087 0.008251926961448301
17 -0.005196433540505267 0.007009441286780746 -0.002993024074433063
20 0.005182252683126025 0.004340671202991633 0.0026462386383524624
21 -0.003021490117884338 9.466124269046039e-05 0.008045346532872637
18 -0.004684341870465747 -0.006109990592324505 -0.0013215602753157913
19 0.0016751025071314008 -0.00378577262839233 -0.004716912553842337
24 -0.004840382511834206 -0.002197478278809525 0.0015822091851839834
43 0.030303812628607842 0.01039473350172109 0.009846561734202624
48 0.014372353286523958 -0.018560048812571478 0.018508343929702673
41 -0.0013038661771622745 -0.0016705298183279302 0.006688724094322934
78 -0.018822925036862986 -0.0014592258273907427 -0.00298525398685339
46 0.012424965930433969 -0.0018558431511414093 0.008231842630626743
23 0.0034760122236265536 -0.00445620523632479 -0.0008916870526175038
42 -0.018682949425507456 -0.00026623220060460393 -0.021677180326315177
22 -0.002145539614830883 -0.002158710918744511 0.005938827670881516
47 -0.00015505720345128745 -0.01192460270567407 0.0016492759471242082
25 0.00030510534893108673 -0.0013035933511952506 -0.0005543290667256798
45 0.0008924473354166848 -0.021036147206670075 -0.023090966474760607

Bonds

1 8 37 11
2 8 36 11
3 5 10 7
4 11 11 10
5 6 11 12
6 8 38 12
7 16 14 76
8 10 12 14
9 3 34 8
10 3 35 9
11 1 8 7
12 1 9 4
13 1 9 8
14 3 33 6
15 1 7 6
16 1 6 5
17 1 5 4
18 2 4 2
19 3 68 54
20 1 54 53
21 1 53 52
22 3 67 53
23 3 71 58
24 1 59 58
25 1 59 60
26 1 58 57
27 6 13 12
28 15 75 63
29 8 39 13
30 9 63 13
31 8 40 13
32 4 60 63
33 3 72 59
34 8 69 56
35 8 70 56
36 1 51 50
37 1 51 52
38 1 55 50
39 1 55 54
40 3 65 50
41 3 66 51
42 2 56 55
43 4 52 64
44 3 32 5
45 2 57 56
46 1 62 57
47 1 62 61
48 3 74 62
49 3 73 61
50 1 61 60
51 8 26 1
52 8 29 3
53 6 3 2
54 8 31 3
55 8 30 3
56 6 2 1
57 8 28 1
58 8 27 1
59 8 49 24
60 9 64 24
61 1 16 15
62 2 15 2
63 3 44 20
64 1 17 16
65 1 20 15
66 1 20 19
67 5 21 18
68 1 18 17
69 1 19 18
70 6 24 23
71 3 43 19
72 8 48 24
73 3 41 16
74 15 78 64
75 8 46 22
76 10 23 25
77 3 42 17
78 11 22 21
79 6 22 23
80 8 47 23
81 16 25 77
82 8 45 22

Angles

1 11 7 10 11
2 16 12 11 10
3 13 12 11 37
4 13 12 11 36
5 31 10 11 36
6 28 37 11 36
7 31 10 11 37
8 21 76 14 12
9 15 14 12 13
10 15 14 12 11
11 30 14 12 38
12 12 13 12 11
13 13 11 12 38
14 13 13 12 38
15 3 7 8 34
16 3 9 8 34
17 1 7 8 9
18 3 4 9 35
19 3 8 9 35
20 1 4 9 8
21 1 6 7 8
22 5 6 7 10
23 5 8 7 10
24 1 5 6 7
25 3 5 6 33
26 3 7 6 33
27 1 4 5 6
28 3 4 5 32
29 3 6 5 32
30 2 2 4 5
31 2 2 4 9
32 1 5 4 9
33 3 53 54 68
34 1 53 54 55
35 3 55 54 68
36 3 52 53 67
37 1 52 53 54
38 3 67 53 54
39 3 60 59 72
40 1 60 59 58
41 3 72 59 58
42 1 57 58 59
43 3 57 58 71
44 3 59 58 71
45 14 12 13 63
46 13 12 13 39
47 13 12 13 40
48 29 63 13 39
49 28 39 13 40
50 29 63 13 40
51 9 13 63 60
52 20 13 63 75
53 10 60 63 75
54 4 63 60 61
55 4 63 60 59
56 1 61 60 59
57 3 52 51 66
58 1 52 51 50
59 3 66 51 50
60 2 50 55 56
61 2 54 55 56
62 1 50 55 54
63 1 51 50 55
64 3 51 50 65
65 3 55 50 65
66 6 55 56 57
67 8 55 56 69
68 8 55 56 70
69 8 57 56 69
70 28 69 56 70
71 8 57 56 70
72 4 64 52 53
73 4 64 52 51
74 1 53 52 51
75 2 56 57 58
76 2 56 57 62
77 1 58 57 62
78 3 57 62 74
79 1 57 62 61
80 3 61 62 74
81 3 60 61 73
82 1 60 61 62
83 3 73 61 62
84 13 2 3 29
85 13 2 3 30
86 13 2 3 31
87 28 29 3 31
88 28 29 3 30
89 28 30 3 31
90 12 1 2 3
91 7 1 2 4
92 7 1 2 15
93 7 3 2 15
94 6 4 2 15
95 7 3 2 4
96 13 2 1 26
97 13 2 1 27
98 13 2 1 28
99 28 27 1 28
100 28 26 1 27
101 28 26 1 28
102 9 24 64 52
103 20 24 64 78
104 10 52 64 78
105 1 15 16 17
106 3 15 16 41
107 3 17 16 41
108 2 2 15 16
109 2 2 15 20
110 1 16 15 20
111 1 16 17 18
112 3 16 17 42
113 3 18 17 42
114 3 15 20 44
115 1 15 20 19
116 3 19 20 44
117 11 18 21 22
118 1 17 18 19
119 5 17 18 21
120 5 19 18 21
121 3 18 19 43
122 3 20 19 43
123 1 18 19 20
124 14 23 24 64
125 13 23 24 49
126 13 23 24 48
127 29 64 24 49
128 28 49 24 48
129 29 64 24 48
130 15 25 23 24
131 15 25 23 22
132 30 25 23 47
133 12 24 23 22
134 13 22 23 47
135 13 24 23 47
136 16 23 22 21
137 13 23 22 45
138 13 23 22 46
139 31 21 22 46
140 28 45 22 46
141 31 21 22 45
142 21 77 25 23

Dihedrals

1 11 11 10 7 6
2 11 11 10 7 8
3 16 7 10 11 12
4 18 7 10 11 36
5 18 7 10 11 37
6 45 10 11 12 14
7 35 37 11 12 14
8 33 37 11 12 38
9 35 36 11 12 14
10 36 10 11 12 38
11 20 36 11 12 13
12 33 36 11 12 38
13 20 37 11 12 13
14 22 10 11 12 13
15 24 13 12 14 76
16 24 11 12 14 76
17 38 38 12 14 76
18 3 34 8 7 6
19 1 9 8 7 6
20 32 34 8 7 10
21 1 7 8 9 4
22 3 34 8 9 4
23 3 35 9 8 7
24 1 8 9 4 5
25 3 35 9 4 5
26 2 8 9 4 2
27 19 35 9 4 2
28 30 35 9 8 34
29 1 8 7 6 5
30 5 10 7 8 9
31 5 10 7 6 5
32 1 7 6 5 4
33 30 33 6 5 32
34 32 33 6 7 10
35 3 33 6 5 4
36 3 33 6 7 8
37 2 6 5 4 2
38 3 32 5 4 9
39 3 32 5 6 7
40 19 32 5 4 2
41 7 5 4 2 1
42 1 9 4 5 6
43 7 5 4 2 3
44 7 9 4 2 1
45 7 9 4 2 3
46 19 68 54 55 56
47 3 68 54 55 50
48 1 53 54 55 50
49 3 68 54 53 52
50 30 68 54 53 67
51 3 55 54 53 67
52 1 55 54 53 52
53 31 67 53 52 64
54 3 67 53 52 51
55 4 54 53 52 64
56 1 54 53 52 51
57 31 72 59 60 63
58 3 72 59 60 61
59 1 58 59 60 61
60 4 58 59 60 63
61 2 59 58 57 56
62 19 71 58 57 56
63 3 71 58 57 62
64 3 71 58 59 60
65 3 57 58 59 72
66 1 57 58 59 60
67 30 71 58 59 72
68 43 63 13 12 14
69 21 63 13 12 11
70 35 39 13 12 14
71 33 40 13 12 38
72 35 40 13 12 14
73 20 40 13 12 11
74 33 39 13 12 38
75 34 63 13 12 38
76 20 39 13 12 11
77 14 60 63 13 12
78 15 60 63 13 39
79 29 75 63 13 40
80 23 75 63 13 12
81 29 75 63 13 39
82 15 60 63 13 40
83 9 61 60 63 13
84 9 59 60 63 13
85 10 61 60 63 75
86 10 59 60 63 75
87 31 66 51 52 64
88 3 66 51 52 53
89 1 50 51 52 53
90 4 50 51 52 64
91 1 54 55 50 51
92 2 56 55 50 51
93 2 56 55 54 53
94 19 65 50 55 56
95 3 65 50 55 54
96 3 65 50 51 52
97 3 55 50 51 66
98 1 55 50 51 52
99 30 65 50 51 66
100 6 57 56 55 50
101 8 70 56 57 62
102 8 70 56 57 58
103 8 70 56 55 50
104 8 69 56 55 50
105 8 69 56 57 58
106 8 70 56 55 54
107 8 69 56 57 62
108 6 57 56 55 54
109 8 69 56 55 54
110 9 53 52 64 24
111 9 51 52 64 24
112 10 53 52 64 78
113 10 51 52 64 78
114 6 58 57 56 55
115 6 62 57 56 55
116 1 62 57 58 59
117 3 74 62 57 58
118 19 74 62 57 56
119 1 61 62 57 58
120 2 61 62 57 56
121 3 74 62 61 60
122 30 74 62 61 73
123 3 57 62 61 73
124 1 57 62 61 60
125 31 73 61 60 63
126 3 73 61 60 59
127 4 62 61 60 63
128 1 62 61 60 59
129 20 29 3 2 1
130 13 31 3 2 15
131 20 31 3 2 1
132 13 30 3 2 4
133 13 30 3 2 15
134 20 30 3 2 1
135 13 29 3 2 4
136 13 29 3 2 15
137 13 31 3 2 4
138 6 15 2 4 5
139 6 15 2 4 9
140 20 26 1 2 3
141 13 28 1 2 15
142 13 26 1 2 4
143 20 27 1 2 3
144 13 28 1 2 4
145 13 27 1 2 15
146 13 26 1 2 15
147 13 27 1 2 4
148 20 28 1 2 3
149 14 52 64 24 23
150 15 52 64 24 49
151 29 78 64 24 48
152 23 78 64 24 23
153 29 78 64 24 49
154 15 52 64 24 48
155 2 17 16 15 2
156 19 41 16 15 2
157 3 41 16 17 18
158 3 41 16 15 20
159 7 16 15 2 1
160 7 20 15 2 1
161 6 20 15 2 4
162 6 16 15 2 4
163 7 20 15 2 3
164 7 16 15 2 3
165 1 20 15 16 17
166 1 18 17 16 15
167 3 42 17 16 15
168 3 42 17 18 19
169 32 42 17 18 21
170 30 42 17 16 41
171 3 44 20 19 18
172 30 44 20 19 43
173 19 44 20 15 2
174 1 19 20 15 16
175 3 44 20 15 16
176 2 19 20 15 2
177 11 22 21 18 17
178 11 22 21 18 19
179 16 18 21 22 23
180 18 18 21 22 46
181 18 18 21 22 45
182 1 19 18 17 16
183 5 21 18 17 16
184 5 21 18 19 20
185 32 43 19 18 21
186 1 18 19 20 15
187 1 20 19 18 17
188 3 43 19 18 17
189 3 43 19 20 15
190 43 64 24 23 25
191 21 64 24 23 22
192 35 49 24 23 25
193 33 48 24 23 47
194 35 48 24 23 25
195 20 48 24 23 22
196 33 49 24 23 47
197 34 64 24 23 47
198 20 49 24 23 22
199 24 24 23 25 77
200 24 22 23 25 77
201 38 47 23 25 77
202 45 21 22 23 25
203 35 45 22 23 25
204 33 45 22 23 47
205 35 46 22 23 25
206 36 21 22 23 47
207 20 46 22 23 24
208 33 46 22 23 47
209 20 45 22 23 24
210 22 21 22 23 24

Impropers

1 4 7 10 6 8
2 12 11 10 12 37
3 12 11 10 12 36
4 8 12 14 13 11
5 11 12 14 13 38
6 10 13 12 63 39
7 2 9 35 4 8
8 1 4 9 2 5
9 2 8 9 34 7
10 2 6 33 5 7
11 2 5 4 6 32
12 2 54 68 53 55
13 3 52 53 51 64
14 2 58 59 71 57
15 1 57 58 62 56
16 2 59 58 60 72
17 10 13 40 12 63
18 18 63 60 75 13
19 2 61 60 73 62
20 6 56 69 55 57
21 6 56 70 55 57
22 2 50 51 55 65
23 1 55 50 54 56
24 2 51 50 52 66
25 18 64 52 78 24
26 2 53 52 67 54
27 2 62 74 61 57
28 3 60 61 59 63
29 1 15 2 20 16
30 9 1 2 27 26
31 9 1 2 28 26
32 9 3 2 29 30
33 9 3 2 29 31
34 7 2 1 3 4
35 7 2 1 3 15
36 4 18 17 19 21
37 12 22 21 23 45
38 12 22 21 23 46
39 2 19 18 43 20
40 2 20 19 44 15
41 10 24 48 23 64
42 2 16 41 17 15
43 10 24 23 64 49
44 2 17 42 18 16
45 8 23 25 24 22
46 11 23 25 24 47

bond_react_props_internal # i_limit_tags i_react_tags

37 0 0
36 0 0
10 0 0
11 0 0
38 0 0
14 0 0
12 0 0
34 0 0
35 0 0
8 0 0
9 0 0
33 0 0
7 0 0
6 0 0
5 0 0
4 0 0
68 0 0
54 0 0
53 0 0
67 0 0
71 0 0
59 0 0
58 0 0
13 0 0
75 0 0
39 0 0
63 0 0
40 0 0
76 0 0
60 0 0
72 0 0
69 0 0
70 0 0
51 0 0
55 0 0
50 0 0
65 0 0
66 0 0
56 0 0
52 0 0
32 0 0
57 0 0
62 0 0
74 0 0
73 0 0
61 0 0
26 0 0
29 0 0
3 0 0
31 0 0
30 0 0
2 0 0
28 0 0
1 0 0
27 0 0
49 0 0
77 0 0
64 0 0
16 0 0
15 0 0
44 0 0
17 0 0
20 0 0
21 0 0
18 0 0
19 0 0
24 0 0
43 0 0
48 0 0
41 0 0
78 0 0
46 0 0
23 0 0
42 0 0
22 0 0
47 0 0
25 0 0
45 0 0

bond_react_stabilization_internal # i_statted_tags

37 1
36 1
10 1
11 1
38 1
14 1
12 1
34 1
35 1
8 1
9 1
33 1
7 1
6 1
5 1
4 1
68 1
54 1
53 1
67 1
71 1
59 1
58 1
13 1
75 1
39 1
63 1
40 1
76 1
60 1
72 1
69 1
70 1
51 1
55 1
50 1
65 1
66 1
56 1
52 1
32 1
57 1
62 1
74 1
73 1
61 1
26 1
29 1
3 1
31 1
30 1
2 1
28 1
1 1
27 1
49 1
77 1
64 1
16 1
15 1
44 1
17 1
20 1
21 1
18 1
19 1
24 1
43 1
48 1
41 1
78 1
46 1
23 1
42 1
22 1
47 1
25 1
45 1
