LAMMPS data file via write_data, version 2 Aug 2023, timestep = 10000, units = real

78 atoms
11 atom types
82 bonds
16 bond types
142 angles
33 angle types
196 dihedrals
45 dihedral types
44 impropers
19 improper types

-6.67908 57.03843 xlo xhi
-6.07739 59.25778 ylo yhi
-4.64866 57.22308 zlo zhi

Masses

1 12.011
2 12.011
3 12.011
4 1.008
5 1.008
6 1.008
7 1.008
8 14.007
9 15.999
10 15.999
11 15.999

Pair Coeffs # lj/cut/coul/cut

1 0.07 3.55
2 0.066 3.5
3 0.083 3.45
4 0 0
5 0.03 2.42
6 0.03 2.5
7 0 0
8 0.17 3.3
9 0.14 2.9
10 0.17 3.12
11 0.14 2.9

Bond Coeffs # harmonic

1 469 1.4
2 317 1.51
3 367 1.08
4 481 1.34
5 450 1.364
6 268 1.529
7 280 1.51
8 340 1.09
9 382 1.448
10 320 1.41
11 320 1.41
12 260 1.52
13 340 1.088
14 320 1.41
15 434 1.01
16 553 0.945

Angle Coeffs # harmonic

1 63 120
2 70 120
3 35 120
4 70 120
5 70 120
6 40 109.5
7 63 114
8 35 109.5
9 50 116
10 35 116
11 75 111
12 58.35 112.7
13 37.5 110.7
14 56.2 109.47
15 50 109.5
16 50 109.5
17 37.5 117.2
18 35 114.3
19 37.5 117.2
20 35 109.5
21 55 108.5
22 37.5 110.7
23 50 109.5
24 37.5 117.2
25 50 90
26 60 90
27 43.6 106.4
28 33 107.8
29 35 109.5
30 35 109.5
31 35 109.5
32 35 114.3
33 37.5 117.2

Dihedral Coeffs # opls

1 0 7.25 0 0
2 0 7.25 0 0
3 0 7.25 0 0
4 0 7.25 0 0
5 0 7.25 0 0
6 0 0 0 0
7 0 0 0 0
8 0 0 0 0
9 -7.582 3.431 3.198 0
10 0 2.03 0 0
11 0 3 0 0
12 0 0 0 0
13 0 0 0.462 0
14 0.416 -0.128 0.695 0
15 0 0 0.56 0
16 0.65 -0.25 0.67 0
17 0.65 -0.25 0.67 0
18 0 0 0.76 0
19 0 7.25 0 0
20 0 0 0.3 0
21 2.392 -0.674 0.55 0
22 1.711 -0.5 0.663 0
23 -0.19 -0.417 0.418 0
24 -0.356 -0.174 0.492 0
25 0 0 0 0
26 0 0 0.3 0
27 0 0 0 0
28 0 0 0 0
29 0 0 0.4 0
30 0 7.25 0 0
31 0 7.25 0 0
32 0 7.25 0 0
33 0 0 0.3 0
34 -1.013 -0.709 0.473 0
35 0 0 0.468 0
36 0 0 0.468 0
37 0 0 0.468 0
38 0 0 0.352 0
39 0 0 0.3 0
40 0 0 0.468 0
41 0 0 0 0
42 0 0 0 0
43 8 0 0 0
44 -0.55 0 0 0
45 4.319 0 0 0

Improper Coeffs # cvff

1 2.5 -1 2
2 2.5 -1 2
3 2.5 -1 2
4 2.5 -1 2
5 0 -1 2
6 0 -1 2
7 0 -1 2
8 0 -1 2
9 0 -1 2
10 0 -1 2
11 0 -1 2
12 0 -1 2
13 0 -1 2
14 0 -1 2
15 0 -1 2
16 0 -1 2
17 0 -1 2
18 0 -1 2
19 0 -1 2

Atoms # full

49 1 6 0.1084 12.793081668333185 10.04014785177952 19.222275954525518 0 0 0
25 1 9 -0.2802 13.111586188611886 10.122629592764183 17.29064279243416 0 0 0
24 1 3 -0.09130000000000001 13.069199147519353 10.79918100730677 18.541632479485884 0 0 0
23 1 3 -0.122 14.311943630222128 10.609100860575019 17.76623899365453 0 0 0
47 1 6 0.2209 15.070703709693825 9.976575457461907 18.14315611424702 0 0 0
48 1 6 0.1084 12.464647025278177 11.715946278987511 18.584182314452757 0 0 0
45 1 6 0.0984 15.336311798129142 11.106766285484339 16.072548920967616 0 0 0
42 1 5 0.1544 16.854829781890295 14.485682895347283 18.493346776227963 0 0 0
46 1 6 0.0984 14.330325721040666 12.502937009644217 16.619999563202075 0 0 0
22 1 2 0.0634 14.962840568356476 11.681611762252016 16.921405440862095 0 0 0
18 1 1 0.1112 16.95334061862056 12.90552872487944 16.998531103343485 0 0 0
21 1 11 -0.3082 16.034072757111012 12.104482957870747 17.709292804455536 0 0 0
17 1 1 -0.1761 17.25716196269886 14.16602159540854 17.51000793556673 0 0 0
43 1 5 0.1544 17.359815442430406 11.602340797543969 15.229828524260894 0 0 0
19 1 1 -0.1761 17.466693224820368 12.577698611428891 15.719959479380941 0 0 0
20 1 1 -0.1129 18.406047881349064 13.457659054527266 15.079623993252428 0 0 0
44 1 5 0.1482 18.884621582374244 13.077291000211154 14.177199851902579 0 0 0
16 1 1 -0.1129 18.06633751613735 15.068530398043006 16.79994668788455 0 0 0
41 1 5 0.1482 18.300057702521066 16.033370329879897 17.167413746823268 0 0 0
32 1 5 0.1501 17.160072863281254 16.26031305733658 13.824527335204259 0 0 0
5 1 1 -0.1327 17.549039421492015 17.21373138783905 14.189770758821956 0 0 0
15 1 1 -0.0916 18.602104623020676 14.81410672332959 15.539038591709764 0 0 0
2 1 2 0.031 19.59813066850105 15.815592698080357 14.926501105580517 0 0 0
4 1 1 -0.0722 18.760402009937085 17.207397259159166 14.904178339054075 0 0 0
31 1 6 0.0906 20.704938887329877 16.071046262617525 16.98258193261146 0 0 0
3 1 2 -0.2279 20.858666144262113 15.821797675638477 15.898919790015583 0 0 0
27 1 6 0.09 19.157357743126887 15.279258344306049 12.856800200882578 0 0 0
1 1 2 -0.2214 20.0477779519926 15.294126430034888 13.51939874833176 0 0 0
26 1 6 0.09 20.73515713546093 15.882252254720294 12.905201647279522 0 0 0
33 1 5 0.1568 15.96557811145607 18.449464547898284 13.339990530837099 0 0 0
30 1 6 0.0906 21.45786854404332 14.906965465803355 15.696669317145158 0 0 0
29 1 6 0.0906 21.303220176171607 16.747385503930353 15.523853190675712 0 0 0
28 1 6 0.09 20.46706614220137 14.243490883663789 13.621342334722527 0 0 0
39 1 6 0.1064 13.314609734925444 21.9391025529943 14.997471444078768 0 0 0
10 1 11 -0.321 16.356850229960813 20.699562503766497 14.345457228560031 0 0 0
7 1 1 0.08840000000000001 17.137054159519376 19.60916823373546 14.658061990110369 0 0 0
11 1 2 0.0354 15.911164378777388 21.405555799118662 15.471501580178868 0 0 0
37 1 6 0.0994 15.162203842843907 20.733208836725424 15.843694410912258 0 0 0
36 1 6 0.0994 16.749607607631123 21.585210079364302 16.19705471717632 0 0 0
8 1 1 -0.1488 18.215194983179792 19.5788331824495 15.582331089632712 0 0 0
6 1 1 -0.1488 16.84420416722635 18.39531119417164 13.920289736200981 0 0 0
13 1 3 -0.0881 13.911025824980017 22.822261349290354 14.749928996789878 0 0 0
12 1 3 -0.1162 15.3669569916823 22.71740724413441 15.019712075873791 0 0 0
40 1 6 0.1064 13.57930045610807 23.306758483001396 13.825085815652804 0 0 0
14 1 9 -0.2803 14.509301567114294 23.535084562882187 15.827783361366468 0 0 0
38 1 6 0.225 16.05492132561977 23.295294908354464 14.448482053136043 0 0 0
34 1 5 0.1568 18.46481726462018 20.459915674985854 16.202492113682975 0 0 0
35 1 5 0.1501 19.849462376639163 18.472056920869765 16.33187126218851 0 0 0
9 1 1 -0.1327 19.0412211924727 18.404298408175023 15.631175840311805 0 0 0
75 2 4 0.5086000000000001 28.11816550514772 24.952709667221153 22.257730710344187 0 0 0
73 2 5 0.1425 24.786467884961997 24.008483519182782 23.472032462248855 0 0 0
76 2 4 0.5086000000000001 26.675937254369707 24.10932518001737 21.98116056268824 0 0 0
62 2 1 -0.1144 24.486769749070522 25.51659709674669 24.990416732569596 0 0 0
61 2 1 -0.2139 25.275786010121774 24.858276634239665 24.04501482380181 0 0 0
52 2 1 0.3218 25.14881486799279 26.868483212620898 31.010596644989526 0 0 0
60 2 1 0.3274 26.657766557582068 25.17082124690542 23.745778684895352 0 0 0
59 2 1 -0.2096 27.249148307623138 26.191777927902038 24.471487731461654 0 0 0
63 2 8 -1.2411 27.290962169879386 24.55892572733318 22.755575169380965 0 0 0
72 2 5 0.145 28.233561699195295 26.546250926971073 24.38404492526487 0 0 0
74 2 5 0.1492 23.398722624576838 25.342501273876632 25.134083535524983 0 0 0
65 2 5 0.1456 23.7869884356786 25.211329253096828 28.41424206017299 0 0 0
51 2 1 -0.2061 24.68630832290539 25.735151091085335 30.21170417327845 0 0 0
66 2 5 0.1436 24.42566174700525 24.80934332199308 30.662350873147794 0 0 0
57 2 1 -0.0586 25.110918694526998 26.58912124815938 25.759918975243828 0 0 0
53 2 1 -0.2057 25.342250353995507 28.12080610552521 30.437871170035777 0 0 0
67 2 5 0.146 25.530005541951112 28.956225418298416 31.08011260587043 0 0 0
54 2 1 -0.1021 25.159867062306976 28.250330078129867 28.999774033828725 0 0 0
68 2 5 0.1472 25.52953197898693 29.163331316033013 28.4909243993189 0 0 0
71 2 5 0.1499 27.182255685841703 27.461512734913427 26.038174142687144 0 0 0
58 2 1 -0.0965 26.5185792214764 26.794617127156958 25.509169634089233 0 0 0
50 2 1 -0.1289 24.350170067769575 25.955128700647453 28.855610629435613 0 0 0
70 2 6 0.1928 23.25823928634314 27.48525175524009 26.601510397049132 0 0 0
55 2 1 -0.0484 24.68692800555246 27.172773226021814 28.221647504494022 0 0 0
56 2 2 -0.3676 24.267059323753507 27.407103044889922 26.776610547992078 0 0 0
69 2 6 0.1928 24.582209800645284 28.391464399018727 26.55879360871652 0 0 0
78 2 4 0.5083 25.344504500574672 27.616236466058034 32.84488084124443 0 0 0
64 2 8 -1.2448 25.331032629940523 26.75113198540385 32.34012832215883 0 0 0
77 2 4 0.5083 25.115494643555547 25.960255521418652 32.933148285833965 0 0 0

Velocities

49 -0.013050361023186045 0.008544247850673961 0.005346070689744373
25 0.0015255092541207349 0.000879537320353293 0.0003479994797261803
24 -0.0005217633822837344 -0.0020946689731843582 -0.003088867678289112
23 0.0035090467197960266 -0.001805446105609582 -0.0031204990434817474
47 0.007945722627083016 -0.016897648843655685 -0.038787196018411664
48 0.0029770993439657183 0.00813354990151007 0.023017081876418394
45 -0.017243022631059746 0.00019484662737793537 -0.010369294812819773
42 0.007129845588657681 -0.022945125921536233 -0.004468624147995528
46 -0.010536659347752036 -0.01313300261180449 0.02580312602716114
22 0.002375364312300099 0.0023312112950276847 0.004877507306417105
18 0.0006306358643922306 1.9012475400864176e-05 -0.0029105798713958235
21 -0.0007622567804959544 0.006180157210080165 -0.0027525705710503153
17 -0.0021838618747716735 -0.005274434086739985 0.0026769724805453454
43 0.006214988777193218 0.03162348853662308 -0.02613401500093176
19 0.0026144073655874596 0.005288869871725662 0.0008093287563353177
20 -0.004850485932848499 -0.0021344900914833337 0.005806862136963356
44 -0.043033576699563175 0.0019530697718094451 -0.010674249227644367
16 0.0007186151656769288 0.003075923386990478 0.002085743629271502
41 -0.024680912879067467 0.017879524227719688 0.005166824926748023
32 0.0064651685110799 0.0002485790659890419 0.012841809043733679
5 -0.0007773665774198902 0.002315301020595156 0.006707200901152896
15 0.0034154836387157218 -0.004204827964257125 0.003766159416863785
2 -0.0023470492429856007 0.003695344769359389 -0.000983878092213678
4 -0.0035163715000370447 0.0016731256538383996 -0.00975886290243875
31 -0.0023687922843851007 0.002168824173776864 0.0057252674750065185
3 0.007189233395339661 -0.0074354953398219365 -0.001528379417275009
27 0.006721435890267443 0.007043724276780436 0.0014048746223207474
1 -0.008467099492738247 -0.005043213880641899 -0.00029017169120591237
26 -0.008139602335073303 0.007396113947937667 -0.013199039431591683
33 -0.013057802000792916 -0.01800712132838369 -0.024704688019815936
30 -0.002449458650510335 -0.000801286687939663 0.0012922102669259336
29 -0.007533015454030184 -0.0273293661135948 -0.0290659562936451
28 -0.004045672987038743 -0.016523105652694266 0.017331439041215632
39 0.014572776997206273 -0.00965702840548175 0.009420179517102252
10 0.002232697363362603 0.003042912024487747 -0.00018831021881054257
7 -0.0021332370085899023 0.005151889241208308 -0.0023436443763317225
11 -0.005055640135883296 0.00012887383573139684 -0.002112117702456023
37 0.011997101940271473 0.009260320517555275 -0.019172305167095668
36 0.0029751601636959506 0.01271946228648036 0.0148763535956472
8 0.0011947784112588682 0.00417894157429617 -0.0015761386848301931
6 0.004180430970901657 -0.0026322474619471163 -0.0030620564842757216
13 0.0027059318415501507 0.0026117144997254162 0.0005641743497991077
12 0.002276297063096973 -0.00926718569144408 0.004634039744429413
40 -0.02595606721109391 0.015285623607130646 -0.002627967298203138
14 -0.0011671358971889387 -0.0038472342789370056 -0.0011088237751513878
38 -0.0030841902826351164 -0.005267507679666961 -0.01979081372084266
34 -0.022298441603280535 -0.005610628809790299 0.015347641491338469
35 -0.00443241333115844 -0.00025204703202913567 -0.0021112713158458222
9 0.004571779521489433 -0.005920928711833524 0.000961910795040473
75 -0.022465440571610158 -0.006973489970782559 0.012386648146992066
73 -0.004597537953579028 -0.012731012291357622 -0.0026738560746729996
76 -0.0017439425197071036 0.018721016249756427 -0.020725353990833292
62 -0.0007147374700077941 -0.0012156189313372993 0.0052633152179231936
61 0.0012659304295209953 -0.003157286950940515 -0.005903000566117193
52 -0.004028685930978607 0.0014380505707783703 -0.002074711172862371
60 -0.0006739788532615148 0.0038454994271868966 0.006420838361203034
59 -0.0014539012744624927 0.0002793762357876857 -0.0024947948604813514
63 -0.0011535354150524935 -0.00248996986566352 0.005403241062377258
72 -0.018732043945384268 -0.0005281893994631416 -0.02404341545671685
74 -0.010413799308608012 0.0013544596821776045 -0.009205167842298348
65 0.037719396872390565 0.007587290935293763 -0.014462325743498214
51 0.005882623174120643 -0.00031229171545128906 -0.003374548014763576
66 -0.006678819045056507 0.02603055408430496 -0.005829604067159122
57 0.007904762345157855 0.009524547880293463 0.0005267878350540193
53 -0.0068433352547454095 4.167514378695563e-05 -0.003236660917274801
67 -0.013411840256562882 0.005805864065890962 0.02513581553417521
54 0.005074328080384037 0.002105450708968073 -0.001390056788356893
68 0.006369092941406843 -0.008496385531607923 -0.01200078273125776
71 0.008471891959875136 -0.01175213609334836 0.014560124593890694
58 0.0009661996899634262 0.004494314862850559 0.004350342712208692
50 -0.0024711835550632754 -8.564417914598309e-05 0.002095779395776417
70 -0.019210810287639976 -0.0072823567129670095 -0.006826828061206805
55 0.0007382084099303349 -0.006908168958876896 0.005915773444678891
56 -0.00035075355957209274 0.005868103331052952 7.045789527916944e-05
69 0.01981497489572777 -0.01629994208360287 0.01278121618789801
78 0.01781279589790744 -0.008415308169754668 -0.014279943671838205
64 -0.002118947556862607 -0.005183543675352959 -0.000321909592079002
77 0.029441194669802207 0.027441766612723247 -0.001851911639346492

Bonds

1 13 49 24
2 14 25 23
3 14 25 24
4 12 24 23
5 7 23 22
6 13 47 23
7 13 48 24
8 8 45 22
9 3 42 17
10 8 46 22
11 11 22 21
12 1 18 17
13 5 21 18
14 1 17 16
15 3 43 19
16 1 19 18
17 1 20 15
18 1 20 19
19 3 44 20
20 1 16 15
21 3 41 16
22 3 32 5
23 1 5 4
24 2 15 2
25 6 2 1
26 2 4 2
27 8 31 3
28 6 3 2
29 8 27 1
30 8 26 1
31 3 33 6
32 8 30 3
33 8 29 3
34 8 28 1
35 13 39 13
36 5 10 7
37 1 7 6
38 11 11 10
39 8 37 11
40 8 36 11
41 1 8 7
42 1 6 5
43 12 13 12
44 7 12 11
45 13 40 13
46 14 14 12
47 14 14 13
48 13 38 12
49 3 34 8
50 3 35 9
51 1 9 4
52 1 9 8
53 15 75 63
54 3 73 61
55 15 76 63
56 1 62 57
57 1 62 61
58 1 61 60
59 1 52 51
60 1 60 59
61 1 59 58
62 4 63 60
63 3 72 59
64 3 74 62
65 3 65 50
66 1 51 50
67 3 66 51
68 2 57 56
69 1 53 52
70 3 67 53
71 1 54 53
72 3 68 54
73 3 71 58
74 1 58 57
75 8 70 56
76 1 55 50
77 1 55 54
78 2 56 55
79 8 69 56
80 15 78 64
81 4 64 52
82 15 77 64

Angles

1 26 23 25 24
2 24 23 24 48
3 24 23 24 49
4 32 48 24 49
5 25 23 24 25
6 33 25 24 49
7 33 25 24 48
8 17 22 23 24
9 19 22 23 25
10 18 22 23 47
11 33 25 23 47
12 24 24 23 47
13 25 24 23 25
14 23 21 22 23
15 31 21 22 45
16 31 21 22 46
17 22 23 22 45
18 28 45 22 46
19 22 23 22 46
20 1 17 18 19
21 5 17 18 21
22 5 19 18 21
23 11 18 21 22
24 1 16 17 18
25 3 16 17 42
26 3 18 17 42
27 3 18 19 43
28 3 20 19 43
29 1 18 19 20
30 3 15 20 44
31 1 15 20 19
32 3 19 20 44
33 1 15 16 17
34 3 15 16 41
35 3 17 16 41
36 1 4 5 6
37 3 4 5 32
38 3 6 5 32
39 2 2 15 16
40 2 2 15 20
41 1 16 15 20
42 12 1 2 3
43 7 1 2 4
44 7 1 2 15
45 7 3 2 15
46 6 4 2 15
47 7 3 2 4
48 2 2 4 5
49 2 2 4 9
50 1 5 4 9
51 13 2 3 29
52 13 2 3 30
53 13 2 3 31
54 28 29 3 31
55 28 29 3 30
56 28 30 3 31
57 13 2 1 26
58 13 2 1 27
59 13 2 1 28
60 28 27 1 28
61 28 26 1 27
62 28 26 1 28
63 11 7 10 11
64 1 6 7 8
65 5 6 7 10
66 5 8 7 10
67 23 10 11 12
68 31 10 11 36
69 31 10 11 37
70 22 12 11 37
71 28 36 11 37
72 22 12 11 36
73 3 7 8 34
74 3 9 8 34
75 1 7 8 9
76 1 5 6 7
77 3 5 6 33
78 3 7 6 33
79 24 12 13 39
80 24 12 13 40
81 33 14 13 40
82 33 14 13 39
83 32 39 13 40
84 25 12 13 14
85 17 11 12 13
86 19 11 12 14
87 18 11 12 38
88 25 13 12 14
89 24 13 12 38
90 33 14 12 38
91 26 12 14 13
92 3 4 9 35
93 3 8 9 35
94 1 4 9 8
95 3 57 62 74
96 1 57 62 61
97 3 61 62 74
98 3 60 61 73
99 3 62 61 73
100 1 60 61 62
101 1 51 52 53
102 4 51 52 64
103 4 53 52 64
104 1 59 60 61
105 4 59 60 63
106 4 61 60 63
107 1 58 59 60
108 3 58 59 72
109 3 60 59 72
110 10 60 63 75
111 10 60 63 76
112 27 75 63 76
113 1 50 51 52
114 3 50 51 66
115 3 52 51 66
116 2 56 57 58
117 2 56 57 62
118 1 58 57 62
119 1 52 53 54
120 3 52 53 67
121 3 54 53 67
122 3 53 54 68
123 1 53 54 55
124 3 55 54 68
125 1 57 58 59
126 3 57 58 71
127 3 59 58 71
128 1 51 50 55
129 3 51 50 65
130 3 55 50 65
131 2 50 55 56
132 2 54 55 56
133 1 50 55 54
134 6 55 56 57
135 8 55 56 69
136 8 55 56 70
137 8 57 56 69
138 28 69 56 70
139 8 57 56 70
140 10 52 64 77
141 10 52 64 78
142 27 77 64 78

Dihedrals

1 42 48 24 23 25
2 42 49 24 23 25
3 28 49 24 25 23
4 25 49 24 23 22
5 25 48 24 23 22
6 28 48 24 25 23
7 41 48 24 23 47
8 41 49 24 23 47
9 27 24 23 22 21
10 6 25 23 22 24
11 42 47 23 24 25
12 44 25 23 22 21
13 39 47 23 22 45
14 28 47 23 25 24
15 40 47 23 22 21
16 39 47 23 22 46
17 17 23 22 21 18
18 18 45 22 21 18
19 18 46 22 21 18
20 37 45 22 23 25
21 26 46 22 23 24
22 37 46 22 23 25
23 26 45 22 23 24
24 1 19 18 17 16
25 5 21 18 17 16
26 5 21 18 19 20
27 11 22 21 18 17
28 11 22 21 18 19
29 1 18 17 16 15
30 3 42 17 16 15
31 3 42 17 18 19
32 32 42 17 18 21
33 30 42 17 16 41
34 32 43 19 18 21
35 1 18 19 20 15
36 1 20 19 18 17
37 3 43 19 18 17
38 3 43 19 20 15
39 3 44 20 19 18
40 30 44 20 19 43
41 19 44 20 15 2
42 1 19 20 15 16
43 3 44 20 15 16
44 2 19 20 15 2
45 2 17 16 15 2
46 19 41 16 15 2
47 3 41 16 17 18
48 3 41 16 15 20
49 2 6 5 4 2
50 3 32 5 4 9
51 3 32 5 6 7
52 19 32 5 4 2
53 7 16 15 2 1
54 7 20 15 2 1
55 6 20 15 2 4
56 6 16 15 2 4
57 7 20 15 2 3
58 7 16 15 2 3
59 1 20 15 16 17
60 6 15 2 4 5
61 6 15 2 4 9
62 7 5 4 2 1
63 1 9 4 5 6
64 7 5 4 2 3
65 7 9 4 2 1
66 7 9 4 2 3
67 20 29 3 2 1
68 13 31 3 2 15
69 20 31 3 2 1
70 13 30 3 2 4
71 13 30 3 2 15
72 20 30 3 2 1
73 13 29 3 2 4
74 13 29 3 2 15
75 13 31 3 2 4
76 20 26 1 2 3
77 13 28 1 2 15
78 13 26 1 2 4
79 20 27 1 2 3
80 13 28 1 2 4
81 13 27 1 2 15
82 13 26 1 2 15
83 13 27 1 2 4
84 20 28 1 2 3
85 11 11 10 7 6
86 11 11 10 7 8
87 1 8 7 6 5
88 5 10 7 8 9
89 5 10 7 6 5
90 17 12 11 10 7
91 26 36 11 12 13
92 18 37 11 10 7
93 37 36 11 12 14
94 26 37 11 12 13
95 37 37 11 12 14
96 18 36 11 10 7
97 3 34 8 7 6
98 1 9 8 7 6
99 32 34 8 7 10
100 1 7 8 9 4
101 3 34 8 9 4
102 1 7 6 5 4
103 30 33 6 5 32
104 32 33 6 7 10
105 3 33 6 5 4
106 3 33 6 7 8
107 42 39 13 12 14
108 42 40 13 12 14
109 41 39 13 12 38
110 41 40 13 12 38
111 28 39 13 14 12
112 28 40 13 14 12
113 25 40 13 12 11
114 25 39 13 12 11
115 27 13 12 11 10
116 6 14 12 11 13
117 44 14 12 11 10
118 28 38 12 14 13
119 39 38 12 11 36
120 42 38 12 13 14
121 39 38 12 11 37
122 40 38 12 11 10
123 3 35 9 8 7
124 1 8 9 4 5
125 3 35 9 4 5
126 2 8 9 4 2
127 19 35 9 4 2
128 30 35 9 8 34
129 3 74 62 57 58
130 30 74 62 61 73
131 19 74 62 57 56
132 1 61 62 57 58
133 3 74 62 61 60
134 2 61 62 57 56
135 31 73 61 60 63
136 1 62 61 60 59
137 1 60 61 62 57
138 3 73 61 62 57
139 3 73 61 60 59
140 1 53 52 51 50
141 4 64 52 51 50
142 4 64 52 53 54
143 1 61 60 59 58
144 4 63 60 61 62
145 4 63 60 59 58
146 1 60 59 58 57
147 30 72 59 58 71
148 31 72 59 60 63
149 3 72 59 60 61
150 3 72 59 58 57
151 10 75 63 60 59
152 10 75 63 60 61
153 10 76 63 60 61
154 10 76 63 60 59
155 3 66 51 50 55
156 31 66 51 52 64
157 30 66 51 50 65
158 3 66 51 52 53
159 6 58 57 56 55
160 6 62 57 56 55
161 1 62 57 58 59
162 1 54 53 52 51
163 3 67 53 52 51
164 3 67 53 54 55
165 31 67 53 52 64
166 1 55 54 53 52
167 30 68 54 53 67
168 19 68 54 55 56
169 3 68 54 53 52
170 3 68 54 55 50
171 1 53 54 55 50
172 2 59 58 57 56
173 19 71 58 57 56
174 3 71 58 57 62
175 3 71 58 59 60
176 1 55 50 51 52
177 19 65 50 55 56
178 3 65 50 55 54
179 3 65 50 51 52
180 1 54 55 50 51
181 2 56 55 50 51
182 2 56 55 54 53
183 6 57 56 55 50
184 8 70 56 57 62
185 8 70 56 57 58
186 8 70 56 55 50
187 8 69 56 55 50
188 8 69 56 57 58
189 8 70 56 55 54
190 8 69 56 57 62
191 6 57 56 55 54
192 8 69 56 55 54
193 10 77 64 52 51
194 10 78 64 52 53
195 10 78 64 52 51
196 10 77 64 52 53

Impropers

1 15 23 25 24 22
2 15 23 25 24 22
3 14 23 24 47 22
4 2 17 42 18 16
5 2 19 18 43 20
6 13 22 21 45 23
7 13 22 21 46 23
8 4 18 17 19 21
9 2 20 19 44 15
10 2 16 41 17 15
11 1 15 2 20 16
12 9 1 2 27 26
13 9 1 2 28 26
14 9 3 2 29 30
15 9 3 2 29 31
16 2 5 4 6 32
17 7 2 1 3 4
18 7 2 1 3 15
19 2 6 33 5 7
20 4 7 10 6 8
21 13 11 10 12 37
22 14 12 11 13 38
23 15 12 13 14 11
24 15 12 13 14 11
25 13 11 12 10 36
26 2 9 35 4 8
27 1 4 9 2 5
28 2 8 9 34 7
29 19 63 75 76 60
30 19 64 52 77 78
31 2 61 60 62 73
32 3 60 59 61 63
33 2 58 59 71 57
34 2 62 74 61 57
35 3 52 51 53 64
36 2 50 51 55 65
37 2 51 66 52 50
38 2 53 67 52 54
39 2 54 68 53 55
40 1 57 58 62 56
41 2 59 58 60 72
42 1 55 50 54 56
43 6 56 70 55 57
44 6 56 69 55 57
