LAMMPS data file via write_data, version 2 Aug 2023, timestep = 100000, units = real

49 atoms
11 atom types
52 bonds
16 bond types
94 angles
33 angle types
128 dihedrals
45 dihedral types
28 impropers
19 improper types

-6.67908 43.32092 xlo xhi
-6.07739 43.92261 ylo yhi
-4.64866 45.35134 zlo zhi

Masses

1 12.011
2 12.011
3 12.011
4 1.008
5 1.008
6 1.008
7 1.008
8 14.007
9 15.999
10 15.999
11 15.999

Pair Coeffs # lj/cut/coul/cut

1 0.07 3.55
2 0.066 3.5
3 0.083 3.45
4 0 0
5 0.03 2.42
6 0.03 2.5
7 0 0
8 0.17 3.3
9 0.14 2.9
10 0.17 3.12
11 0.14 2.9

Bond Coeffs # harmonic

1 469 1.4
2 317 1.51
3 367 1.08
4 481 1.34
5 450 1.364
6 268 1.529
7 280 1.51
8 340 1.09
9 382 1.448
10 320 1.41
11 320 1.41
12 260 1.52
13 340 1.088
14 320 1.41
15 434 1.01
16 553 0.945

Angle Coeffs # harmonic

1 63 120
2 70 120
3 35 120
4 70 120
5 70 120
6 40 109.5
7 63 114
8 35 109.5
9 50 116
10 35 116
11 75 111
12 58.35 112.7
13 37.5 110.7
14 56.2 109.47
15 50 109.5
16 50 109.5
17 37.5 117.2
18 35 114.3
19 37.5 117.2
20 35 109.5
21 55 108.5
22 37.5 110.7
23 50 109.5
24 37.5 117.2
25 50 90
26 60 90
27 43.6 106.4
28 33 107.8
29 35 109.5
30 35 109.5
31 35 109.5
32 35 114.3
33 37.5 117.2

Dihedral Coeffs # opls

1 0 7.25 0 0
2 0 7.25 0 0
3 0 7.25 0 0
4 0 7.25 0 0
5 0 7.25 0 0
6 0 0 0 0
7 0 0 0 0
8 0 0 0 0
9 -7.582 3.431 3.198 0
10 0 2.03 0 0
11 0 3 0 0
12 0 0 0 0
13 0 0 0.462 0
14 0.416 -0.128 0.695 0
15 0 0 0.56 0
16 0.65 -0.25 0.67 0
17 0.65 -0.25 0.67 0
18 0 0 0.76 0
19 0 7.25 0 0
20 0 0 0.3 0
21 2.392 -0.674 0.55 0
22 1.711 -0.5 0.663 0
23 -0.19 -0.417 0.418 0
24 -0.356 -0.174 0.492 0
25 0 0 0 0
26 0 0 0.3 0
27 0 0 0 0
28 0 0 0 0
29 0 0 0.4 0
30 0 7.25 0 0
31 0 7.25 0 0
32 0 7.25 0 0
33 0 0 0.3 0
34 -1.013 -0.709 0.473 0
35 0 0 0.468 0
36 0 0 0.468 0
37 0 0 0.468 0
38 0 0 0.352 0
39 0 0 0.3 0
40 0 0 0.468 0
41 0 0 0 0
42 0 0 0 0
43 8 0 0 0
44 -0.55 0 0 0
45 4.319 0 0 0

Improper Coeffs # cvff

1 2.5 -1 2
2 2.5 -1 2
3 2.5 -1 2
4 2.5 -1 2
5 0 -1 2
6 0 -1 2
7 0 -1 2
8 0 -1 2
9 0 -1 2
10 0 -1 2
11 0 -1 2
12 0 -1 2
13 0 -1 2
14 0 -1 2
15 0 -1 2
16 0 -1 2
17 0 -1 2
18 0 -1 2
19 0 -1 2

Atoms # full

47 1 6 0.2209 17.57444903232513 14.388861212145937 17.093166331723484 0 0 0
42 1 5 0.1544 17.88014982909273 17.86926279849671 19.959338765521522 0 0 0
25 1 9 -0.2802 17.750406827818395 12.71464778392659 18.55305324738294 0 0 0
49 1 6 0.1084 17.956452885376176 11.705412462699766 16.78160443863223 0 0 0
23 1 3 -0.122 18.32028182505035 13.747427222375835 17.711968251357057 0 0 0
24 1 3 -0.09130000000000001 18.5742532810099 12.254968100243808 17.481650599273735 0 0 0
48 1 6 0.1084 19.59959107049743 11.829076305955178 17.695809303651927 0 0 0
46 1 6 0.0984 20.163921890207746 14.90076163674901 17.601756347821116 0 0 0
45 1 6 0.0984 19.963785098856093 13.9815244134341 19.033824054844285 0 0 0
43 1 5 0.1544 21.537763750225896 15.608544927076787 19.727970737077623 0 0 0
22 1 2 0.0634 19.45166040025103 14.568454388746767 18.31843207748334 0 0 0
18 1 1 0.1112 19.604893870996797 16.59046254729074 19.574828202153864 0 0 0
21 1 11 -0.3082 18.854050049682535 15.52346706259131 19.108642337320525 0 0 0
19 1 1 -0.1761 21.016330644976012 16.520296990171104 19.771490098564655 0 0 0
17 1 1 -0.1761 18.952267323888176 17.784282848271506 20.108796765541474 0 0 0
20 1 1 -0.1129 21.703606211625313 17.530902297865847 20.478307458724235 0 0 0
39 1 6 0.1064 17.539848036170845 26.00921860717217 18.427936851949386 0 0 0
13 1 3 -0.0881 18.207799937073446 26.811474264102575 18.319806603644643 0 0 0
33 1 5 0.1568 20.919027289063074 22.74132434065551 18.2107617842679 0 0 0
12 1 3 -0.1162 19.254696218790542 27.02199149674076 19.346712080548276 0 0 0
6 1 1 -0.1488 20.866493050329588 22.570923291002757 19.260252674174556 0 0 0
32 1 5 0.1501 21.836951460873916 20.636616854172193 19.293937303313985 0 0 0
5 1 1 -0.1327 21.36986282461821 21.402244070259844 19.90492649981222 0 0 0
10 1 11 -0.321 19.737564558080454 24.676535579891905 19.60971039012692 0 0 0
7 1 1 0.08840000000000001 20.25527934135986 23.51148464172553 20.12135148056095 0 0 0
11 1 2 0.0354 19.444026132812333 25.888077033747734 20.34863436879381 0 0 0
40 1 6 0.1064 18.499822079521387 27.00098876066926 17.319064234398517 0 0 0
14 1 9 -0.2803 18.107279913961627 27.822885221803343 19.28654986349359 0 0 0
38 1 6 0.225 20.104633695888708 27.54762339916256 19.025844124857464 0 0 0
44 1 5 0.1482 22.760293265853665 17.353241301718874 20.63235134744531 0 0 0
16 1 1 -0.1129 19.60872409201497 18.737900750047164 20.87268234428277 0 0 0
15 1 1 -0.0916 21.01200749639942 18.705968794384724 20.994802547853975 0 0 0
30 1 6 0.0906 22.0296457269631 18.582206689799836 23.609130247371272 0 0 0
28 1 6 0.09 23.689652987775187 18.8342578619795 21.98429371057811 0 0 0
37 1 6 0.0994 18.64607576927937 25.58525385852105 20.961496285667792 0 0 0
36 1 6 0.0994 20.375855351827347 26.18260633826594 20.90450019319108 0 0 0
41 1 5 0.1482 19.09683130944879 19.612379988976855 21.247061210602958 0 0 0
31 1 6 0.0906 20.587453336107963 19.625834647635013 23.575484118466587 0 0 0
34 1 5 0.1568 19.693573295833133 23.92814811001224 22.197755190668296 0 0 0
29 1 6 0.0906 22.108831796530414 20.373649418062094 23.9072264235809 0 0 0
3 1 2 -0.2279 21.63277901546222 19.591518421773767 23.31726531090769 0 0 0
2 1 2 0.031 21.81124195302513 19.817588058552616 21.82894203227181 0 0 0
26 1 6 0.09 23.864335777642825 20.527613823436113 22.113142115675213 0 0 0
1 1 2 -0.2214 23.305040786058566 19.7359189310691 21.5766931856103 0 0 0
8 1 1 -0.1488 20.213903632175676 23.300633623905597 21.48295505139515 0 0 0
27 1 6 0.09 23.527752939602202 19.63527011363296 20.54740234137626 0 0 0
35 1 5 0.1501 20.583134001138635 21.986257140655262 23.173528490024864 0 0 0
9 1 1 -0.1327 20.644672390557556 22.107233651091253 22.090701271790905 0 0 0
4 1 1 -0.0722 21.259335959764233 21.116097770957722 21.2520417498476 0 0 0

Velocities

47 0.0037492707459805714 0.016786461265922308 0.01940951366064312
42 0.014222893488439721 0.004893964212955914 -0.020509634545045417
25 0.004932309813502205 -0.0016726685619813705 0.001672362913061519
49 -0.01099539141720111 -0.02431550824550076 -0.012302900493979288
23 -0.0005330973389947518 0.0040680431926082145 -0.003376354770113552
24 -0.004309858597387076 0.0017453645109078639 0.0022267356797461475
48 0.011881161144942996 0.011106914664988853 -0.002039555199680025
46 -0.004355089368847723 0.006378618739511281 -0.01544844447739481
45 0.02928608529466793 0.012904058744456512 0.016149010173574896
43 -0.0015062278003671503 -0.009076595771335478 0.013522993057081297
22 0.005127054533507922 0.001456635358137492 0.005423811748291465
18 -0.0013316499038992726 -0.0011260281249308903 0.011057362159999964
21 0.0008956317326203757 0.0011308445571870096 -0.005016456456521436
19 -0.00016409777994503972 0.007882340536375432 -0.00975049863470229
17 -0.00524211817016253 -0.00291611693867401 0.010156030978608146
20 -0.005881654567706362 0.002905804167663743 -0.0011430956031708277
39 -0.01919935253354929 0.008117033884124405 0.010257405237082058
13 -0.00015340916756149324 -0.0016921724416836734 0.0020365399045680728
33 -0.010394361240007682 -0.015908173971003095 -0.014755100977220437
12 0.0022064996409176096 0.003319914561558899 -0.0021991474953713557
6 -0.00036553073464117106 -0.0025572956796447396 -0.0009906109006344746
32 -0.016535269567398814 0.013815524637928633 0.018812628369399256
5 0.0025101035196864858 -0.005087664312698346 0.0023703339663415477
10 0.004991962668831982 -0.002159218167832025 -0.009740082762697931
7 0.0034137158258718183 -0.0030608199191726145 0.007643196623281939
11 -0.0037913824345333874 -0.0009934306540951446 0.0035929369464755565
40 0.006469571296526351 -0.0017969761833404884 -0.025105512647046305
14 0.0023735318235866584 -0.00550418025030592 0.002390986495877304
38 -0.0025679805078537062 0.026508925383453903 0.024458425739914472
44 -0.043400469615204294 0.00998370422543121 0.014226960357136772
16 0.001370329767901975 -0.0014187990757372393 -0.009354204530894581
15 2.2051459211138763e-05 0.004619449962471041 -0.0015019084257348939
30 -0.003945333450847637 -0.01242161593381551 -0.00043212301189059677
28 0.004457113459307609 -0.00709768744043866 -0.0032907941578343243
37 0.0054938415106595 -0.005755029684092489 -0.006768632594337931
36 -0.017748733474536954 0.0033706323932646007 0.014342518179963577
41 0.01624469161171952 -0.007222010072497015 0.014947620848672053
31 -0.00908186269751835 -0.004215201697223298 -0.0068687907041989895
34 -0.019305546478944714 -0.00780565942869155 0.012256204364319907
29 0.007127412202279092 -0.01852473579360746 -0.019600966458514273
3 -0.0005832979486855359 -0.0056164166384920075 -1.3619606390639543e-05
2 -0.007635397138964111 0.0014521276131591616 0.005886134156684272
26 0.03022187504110909 -0.007428413142199672 -0.0018459431507501193
1 0.0005925511788915299 0.005709238484053184 -0.001418936150302836
8 -0.0011334107309453553 0.004365234230448574 -0.0028913577769190822
27 -0.0056038906786398755 -0.003805628510646869 -0.007387798896621332
35 0.016479904942719076 -0.004418239776603918 0.026208442712278977
9 0.003631950392031466 0.002262765076969845 -0.0038009629233372814
4 -0.0037283751651230896 -0.0030520515094708983 -0.0037568200990651906

Bonds

1 13 47 23
2 3 42 17
3 14 25 23
4 14 25 24
5 13 49 24
6 7 23 22
7 12 24 23
8 13 48 24
9 8 46 22
10 8 45 22
11 3 43 19
12 11 22 21
13 1 18 17
14 5 21 18
15 1 19 18
16 1 17 16
17 1 20 15
18 1 20 19
19 13 39 13
20 12 13 12
21 3 33 6
22 7 12 11
23 1 6 5
24 3 32 5
25 1 5 4
26 5 10 7
27 1 7 6
28 11 11 10
29 13 40 13
30 14 14 12
31 14 14 13
32 13 38 12
33 3 44 20
34 1 16 15
35 2 15 2
36 8 30 3
37 8 28 1
38 8 37 11
39 8 36 11
40 3 41 16
41 8 31 3
42 3 34 8
43 8 29 3
44 6 3 2
45 6 2 1
46 8 26 1
47 1 8 7
48 8 27 1
49 3 35 9
50 1 9 4
51 1 9 8
52 2 4 2

Angles

1 26 23 25 24
2 17 22 23 24
3 19 22 23 25
4 18 22 23 47
5 33 25 23 47
6 24 24 23 47
7 25 24 23 25
8 24 23 24 48
9 24 23 24 49
10 32 48 24 49
11 25 23 24 25
12 33 25 24 49
13 33 25 24 48
14 23 21 22 23
15 31 21 22 45
16 31 21 22 46
17 22 23 22 45
18 28 45 22 46
19 22 23 22 46
20 1 17 18 19
21 5 17 18 21
22 5 19 18 21
23 11 18 21 22
24 3 18 19 43
25 3 20 19 43
26 1 18 19 20
27 1 16 17 18
28 3 16 17 42
29 3 18 17 42
30 3 15 20 44
31 1 15 20 19
32 3 19 20 44
33 24 12 13 39
34 24 12 13 40
35 33 14 13 40
36 33 14 13 39
37 32 39 13 40
38 25 12 13 14
39 17 11 12 13
40 19 11 12 14
41 18 11 12 38
42 25 13 12 14
43 24 13 12 38
44 33 14 12 38
45 1 5 6 7
46 3 5 6 33
47 3 7 6 33
48 1 4 5 6
49 3 4 5 32
50 3 6 5 32
51 11 7 10 11
52 1 6 7 8
53 5 6 7 10
54 5 8 7 10
55 23 10 11 12
56 31 10 11 36
57 31 10 11 37
58 22 12 11 37
59 28 36 11 37
60 22 12 11 36
61 26 12 14 13
62 1 15 16 17
63 3 15 16 41
64 3 17 16 41
65 2 2 15 16
66 2 2 15 20
67 1 16 15 20
68 13 2 3 29
69 13 2 3 30
70 13 2 3 31
71 28 29 3 31
72 28 29 3 30
73 28 30 3 31
74 12 1 2 3
75 7 1 2 4
76 7 1 2 15
77 7 3 2 15
78 6 4 2 15
79 7 3 2 4
80 13 2 1 26
81 13 2 1 27
82 13 2 1 28
83 28 27 1 28
84 28 26 1 27
85 28 26 1 28
86 3 7 8 34
87 3 9 8 34
88 1 7 8 9
89 3 4 9 35
90 3 8 9 35
91 1 4 9 8
92 2 2 4 5
93 2 2 4 9
94 1 5 4 9

Dihedrals

1 27 24 23 22 21
2 6 25 23 22 24
3 42 47 23 24 25
4 44 25 23 22 21
5 39 47 23 22 45
6 28 47 23 25 24
7 40 47 23 22 21
8 39 47 23 22 46
9 42 48 24 23 25
10 42 49 24 23 25
11 28 49 24 25 23
12 25 49 24 23 22
13 25 48 24 23 22
14 28 48 24 25 23
15 41 48 24 23 47
16 41 49 24 23 47
17 17 23 22 21 18
18 18 45 22 21 18
19 18 46 22 21 18
20 37 45 22 23 25
21 26 46 22 23 24
22 37 46 22 23 25
23 26 45 22 23 24
24 1 19 18 17 16
25 5 21 18 17 16
26 5 21 18 19 20
27 11 22 21 18 17
28 11 22 21 18 19
29 32 43 19 18 21
30 1 18 19 20 15
31 1 20 19 18 17
32 3 43 19 18 17
33 3 43 19 20 15
34 1 18 17 16 15
35 3 42 17 16 15
36 3 42 17 18 19
37 32 42 17 18 21
38 30 42 17 16 41
39 3 44 20 19 18
40 30 44 20 19 43
41 19 44 20 15 2
42 1 19 20 15 16
43 3 44 20 15 16
44 2 19 20 15 2
45 42 39 13 12 14
46 42 40 13 12 14
47 41 39 13 12 38
48 41 40 13 12 38
49 28 39 13 14 12
50 28 40 13 14 12
51 25 40 13 12 11
52 25 39 13 12 11
53 27 13 12 11 10
54 6 14 12 11 13
55 44 14 12 11 10
56 28 38 12 14 13
57 39 38 12 11 36
58 42 38 12 13 14
59 39 38 12 11 37
60 40 38 12 11 10
61 1 7 6 5 4
62 30 33 6 5 32
63 32 33 6 7 10
64 3 33 6 5 4
65 3 33 6 7 8
66 2 6 5 4 2
67 3 32 5 4 9
68 3 32 5 6 7
69 19 32 5 4 2
70 11 11 10 7 6
71 11 11 10 7 8
72 1 8 7 6 5
73 5 10 7 8 9
74 5 10 7 6 5
75 17 12 11 10 7
76 26 36 11 12 13
77 18 37 11 10 7
78 37 36 11 12 14
79 26 37 11 12 13
80 37 37 11 12 14
81 18 36 11 10 7
82 2 17 16 15 2
83 19 41 16 15 2
84 3 41 16 17 18
85 3 41 16 15 20
86 7 16 15 2 1
87 7 20 15 2 1
88 6 20 15 2 4
89 6 16 15 2 4
90 7 20 15 2 3
91 7 16 15 2 3
92 1 20 15 16 17
93 20 29 3 2 1
94 13 31 3 2 15
95 20 31 3 2 1
96 13 30 3 2 4
97 13 30 3 2 15
98 20 30 3 2 1
99 13 29 3 2 4
100 13 29 3 2 15
101 13 31 3 2 4
102 6 15 2 4 5
103 6 15 2 4 9
104 20 26 1 2 3
105 13 28 1 2 15
106 13 26 1 2 4
107 20 27 1 2 3
108 13 28 1 2 4
109 13 27 1 2 15
110 13 26 1 2 15
111 13 27 1 2 4
112 20 28 1 2 3
113 3 34 8 7 6
114 1 9 8 7 6
115 32 34 8 7 10
116 1 7 8 9 4
117 3 34 8 9 4
118 3 35 9 8 7
119 1 8 9 4 5
120 3 35 9 4 5
121 2 8 9 4 2
122 19 35 9 4 2
123 30 35 9 8 34
124 7 5 4 2 1
125 1 9 4 5 6
126 7 5 4 2 3
127 7 9 4 2 1
128 7 9 4 2 3

Impropers

1 2 17 42 18 16
2 15 23 25 24 22
3 15 23 25 24 22
4 14 23 24 47 22
5 2 19 18 43 20
6 13 22 21 45 23
7 13 22 21 46 23
8 2 20 19 44 15
9 4 18 17 19 21
10 15 12 13 14 11
11 15 12 13 14 11
12 2 6 33 5 7
13 13 11 12 10 36
14 4 7 10 6 8
15 13 11 10 12 37
16 14 12 11 13 38
17 2 16 41 17 15
18 1 15 2 20 16
19 9 1 2 27 26
20 9 1 2 28 26
21 9 3 2 29 30
22 9 3 2 29 31
23 7 2 1 3 4
24 7 2 1 3 15
25 2 9 35 4 8
26 1 4 9 2 5
27 2 8 9 34 7
28 2 5 4 6 32
