78
 Atoms. Timestep: 0
2 23.305 19.7359 21.5767
2 21.8112 19.8176 21.8289
2 21.6328 19.5915 23.3173
1 21.2593 21.1161 21.252
1 21.3699 21.4022 19.9049
1 20.8665 22.5709 19.2603
1 20.2553 23.5115 20.1214
1 20.2139 23.3006 21.483
1 20.6447 22.1072 22.0907
11 19.7376 24.6765 19.6097
2 19.444 25.8881 20.3486
3 19.2547 27.022 19.3467
3 18.2078 26.8115 18.3198
9 18.1073 27.8229 19.2865
1 21.012 18.706 20.9948
1 19.6087 18.7379 20.8727
1 18.9523 17.7843 20.1088
1 19.6049 16.5905 19.5748
1 21.0163 16.5203 19.7715
1 21.7036 17.5309 20.4783
11 18.8541 15.5235 19.1086
2 19.4517 14.5685 18.3184
3 18.3203 13.7474 17.712
3 18.5743 12.255 17.4817
9 17.7504 12.7146 18.5531
6 23.8643 20.5276 22.1131
6 23.5278 19.6353 20.5474
6 23.6897 18.8343 21.9843
6 22.1088 20.3736 23.9072
6 22.0296 18.5822 23.6091
6 20.5875 19.6258 23.5755
5 21.837 20.6366 19.2939
5 20.919 22.7413 18.2108
5 19.6936 23.9281 22.1978
5 20.5831 21.9863 23.1735
6 20.3759 26.1826 20.9045
6 18.6461 25.5853 20.9615
6 20.1046 27.5476 19.0258
6 17.5398 26.0092 18.4279
6 18.4998 27.001 17.3191
5 19.0968 19.6124 21.2471
5 17.8801 17.8693 19.9593
5 21.5378 15.6085 19.728
5 22.7603 17.3532 20.6324
6 19.9638 13.9815 19.0338
6 20.1639 14.9008 17.6018
6 17.5744 14.3889 17.0932
6 19.5996 11.8291 17.6958
6 17.9565 11.7054 16.7816
1 28.5164 31.18 30.0187
1 27.9364 31.4478 31.2644
1 27.0655 30.4543 31.7389
1 26.8453 29.2846 31.0222
1 27.4855 29.0159 29.8304
1 28.3986 29.9988 29.3488
2 29.3412 29.6865 28.2128
1 30.876 29.6789 28.6578
1 31.6282 30.8372 28.506
1 32.941 30.9058 28.9506
1 33.5316 29.8219 29.6165
1 32.6837 28.6795 29.8866
1 31.3629 28.5527 29.402
8 34.81 29.762 30.0263
8 26.3882 30.6007 32.8962
5 29.1647 31.9863 29.8096
5 28.2241 32.3071 31.8799
5 26.1301 28.5153 31.2721
5 27.3567 28.1595 29.2546
6 29.1273 30.2483 27.3173
6 29.136 28.6349 27.9989
5 31.3254 31.722 27.9276
5 33.4596 31.8001 28.7353
5 33.1966 27.8939 30.4165
5 30.7437 27.5821 29.4632
4 35.1516 30.7294 30.2065
4 34.9457 29.317 30.8757
4 26.3267 31.5044 33.3341
4 25.5978 29.9958 33.129
78
 Atoms. Timestep: 1000
2 19.5019 16.0315 18.1336
2 18.0125 16.1005 18.2402
2 17.5645 15.9271 19.729
1 17.5933 17.4313 17.587
1 17.6113 17.5139 16.1615
1 17.2264 18.7689 15.5626
1 16.8353 19.8925 16.3801
1 16.9081 19.8134 17.7663
1 17.3579 18.584 18.3543
11 16.2792 20.9648 15.6265
2 15.9208 22.1091 16.2967
3 15.4126 23.0935 15.1702
3 14.0101 23.0262 14.7345
9 14.5562 24.08 15.6411
1 17.2628 15.1147 17.3711
1 15.8542 15.1003 17.3683
1 15.1909 14.1033 16.7331
1 15.8088 13.0769 15.9435
1 17.2009 13.2067 15.8291
1 17.9509 14.1782 16.5305
11 15.0815 12.0525 15.3948
2 15.7421 10.9721 14.8062
3 14.661 9.96603 14.3482
3 15.1051 8.63833 13.7707
9 14.4327 8.76142 14.964
6 19.9927 16.789 18.6821
6 19.8012 16.1965 17.1154
6 19.9541 15.1113 18.4711
6 18.111 16.6108 20.4382
6 17.8185 14.9566 20.0807
6 16.4939 16.1045 19.8608
5 17.8594 16.6799 15.5251
5 17.1867 18.8748 14.4905
5 16.6955 20.556 18.4736
5 17.4368 18.6609 19.4604
6 16.7117 22.59 16.8278
6 15.0834 21.924 16.9308
6 16.0558 23.3126 14.3563
6 13.3481 22.2663 15.2489
6 13.8301 23.2216 13.6566
5 15.306 15.8934 17.8715
5 14.1133 14.1222 17.0413
5 17.7884 12.5802 15.2381
5 19.03 14.0043 16.7183
6 16.3508 10.6065 15.6311
6 16.3153 11.2844 13.9306
6 13.6878 10.4253 13.9752
6 16.1547 8.40552 13.9434
6 14.702 8.48057 12.7159
1 24.2904 27.6876 26.146
1 23.3787 27.8884 27.2253
1 23.0216 26.8176 28.1466
1 23.6846 25.5949 27.9453
1 24.6017 25.3499 26.9039
1 24.8808 26.467 25.9771
2 25.7474 26.1776 24.7125
1 27.2128 25.9446 25.1996
1 27.8906 27.01 25.8582
1 29.3079 27.0394 25.9777
1 30.0241 25.9158 25.5876
1 29.2646 24.7517 25.1429
1 27.871 24.7245 25.0333
8 31.3244 25.9031 25.7235
8 22.0125 26.9674 29.0769
5 24.5349 28.5082 25.4857
5 22.9229 28.8269 27.3731
5 23.3372 24.7784 28.5458
5 25.0795 24.3612 26.7932
6 25.8422 26.9875 24.0158
6 25.3363 25.3098 24.2312
5 27.2799 27.7716 26.275
5 29.7049 27.856 26.584
5 29.7595 23.8088 24.7633
5 27.3178 23.8932 24.6273
4 31.8615 26.4008 26.4817
4 31.8989 25.1776 25.3972
4 21.6716 27.9214 29.199
4 22.1317 26.4764 29.9944
78
 Atoms. Timestep: 2000
2 19.555 16.3528 17.8003
2 18.0281 16.277 18.0996
2 17.8079 16.1621 19.6601
1 17.4183 17.5315 17.5228
1 17.3816 17.6038 16.0634
1 16.9324 18.774 15.4069
1 16.4605 19.8326 16.1412
1 16.4074 19.7478 17.5852
1 16.8527 18.6111 18.2459
11 16.2069 21.0015 15.54
2 15.9059 22.1808 16.2406
3 15.7022 23.1723 15.1822
3 14.3562 23.3176 14.5228
9 14.8137 24.2804 15.4309
1 17.4125 15.0579 17.3215
1 16.0234 14.9149 17.3936
1 15.3295 13.8814 16.8162
1 15.9802 12.9878 15.9821
1 17.3871 13.1354 15.8165
1 18.0712 14.1439 16.5055
11 15.2055 11.9731 15.421
2 15.7852 10.9007 14.755
3 14.67 9.92159 14.5549
3 15.0075 8.47422 14.3361
9 14.6523 9.01151 15.5712
6 20.0119 17.2149 18.3168
6 19.7946 16.4439 16.7181
6 20.1397 15.5182 18.1968
6 18.0788 17.0499 20.1285
6 18.4562 15.3593 20.0198
6 16.7259 16.0378 19.8582
5 17.699 16.7337 15.5026
5 16.9266 18.7774 14.3279
5 15.9774 20.5358 18.1512
5 16.719 18.5546 19.3742
6 16.7499 22.4694 16.8031
6 14.9647 22.1657 16.8351
6 16.4738 23.1903 14.391
6 13.6676 22.5396 14.7873
6 14.4402 23.6233 13.4995
5 15.4169 15.6304 17.8459
5 14.2932 13.6912 16.9303
5 17.7944 12.275 15.3129
5 19.1782 14.0427 16.4974
6 16.5534 10.452 15.3547
6 16.2084 11.3191 13.8814
6 13.7212 10.274 14.1959
6 16.0242 8.05819 14.3056
6 14.2986 7.9068 13.8473
1 25.2343 26.9789 27.18
1 24.4379 26.8883 28.3543
1 23.2065 26.2375 28.3445
1 22.7428 25.761 27.1176
1 23.5865 25.7896 25.9782
1 24.8202 26.4488 26.0154
2 25.6326 26.6385 24.7851
1 27.077 26.3356 25.0983
1 28.0614 27.2922 24.6994
1 29.4354 27.0537 24.9011
1 29.8118 25.967 25.6465
1 28.9038 25.0123 25.9698
1 27.5314 25.1994 25.7719
8 31.1024 25.6496 25.815
8 22.4589 26.2376 29.4451
5 26.2245 27.4176 27.2722
5 24.8102 27.2334 29.3788
5 21.8094 25.2106 26.9825
5 23.2513 25.5516 24.9878
6 25.4131 27.6034 24.2813
6 25.3783 25.9155 24.0137
5 27.638 28.173 24.2733
5 30.148 27.825 24.5428
5 29.3166 24.1219 26.406
5 26.755 24.4613 26.0947
4 31.8247 26.3038 25.5306
4 31.3349 25.2641 26.7129
4 22.6965 27.0038 30.0477
4 21.4207 26.2281 29.3443
78
 Atoms. Timestep: 3000
2 19.857 16.2709 17.8492
2 18.3504 16.3233 18.0328
2 18.0712 16.2512 19.5324
1 17.7012 17.6245 17.4163
1 17.67 17.7367 16.0054
1 17.1539 18.8638 15.3451
1 16.6851 20.0163 16.0937
1 16.7119 19.9048 17.4941
1 17.2066 18.7716 18.1358
11 16.3145 21.1655 15.45
2 15.8001 22.2819 16.1144
3 15.4069 23.1571 14.9623
3 14.2014 22.8664 14.1311
9 14.2099 23.9237 15.1525
1 17.6246 15.1453 17.3394
1 16.1881 15.2246 17.4342
1 15.4749 14.1138 16.9102
1 16.0996 13.0021 16.2752
1 17.5623 13.0174 16.0783
1 18.2569 14.0885 16.6924
11 15.2898 11.9228 16.052
2 15.873 10.8075 15.3957
3 14.6274 10.197 14.7605
3 14.6559 8.85201 14.0662
9 14.0999 8.99763 15.3353
6 20.4694 17.0896 18.2769
6 20.0419 16.3742 16.7659
6 20.3833 15.3386 18.1734
6 18.6653 16.8838 20.1739
6 18.2314 15.2644 19.9432
6 17.048 16.5088 19.8171
5 18.1071 16.9448 15.3233
5 17.1838 18.8945 14.2759
5 16.4072 20.7422 18.1381
5 17.3459 18.7826 19.2166
6 16.4729 22.8491 16.6931
6 14.8956 21.9684 16.6579
6 16.259 23.6247 14.4084
6 13.7452 21.8989 14.3427
6 14.0831 22.9645 13.0923
5 15.7209 16.0091 18.036
5 14.417 14.1762 17.1508
5 18.1068 12.1434 15.7228
5 19.3172 14.0896 16.6604
6 16.368 10.2487 16.2161
6 16.6513 11.0394 14.6321
6 13.9522 10.9221 14.3428
6 15.5671 8.32474 13.9006
6 13.8253 8.40586 13.453
1 24.1691 27.9056 26.9087
1 23.3641 27.6142 28.0237
1 23.2627 26.3213 28.6189
1 23.8715 25.2531 27.998
1 24.7188 25.4779 26.8869
1 24.7763 26.8063 26.3281
2 25.5257 26.9105 24.9884
1 26.9372 26.3782 25.0682
1 27.7582 26.5864 26.1775
1 29.0772 26.1232 26.2154
1 29.5898 25.3331 25.1536
1 28.776 25.0948 24.0379
1 27.4547 25.6275 24.0217
8 30.8903 24.9978 25.1371
8 22.3452 26.0906 29.5185
5 24.2734 28.8559 26.3966
5 22.8726 28.4648 28.3981
5 23.8649 24.298 28.4764
5 25.352 24.6485 26.4514
6 25.5753 27.9504 24.6317
6 25.0401 26.3246 24.1765
5 27.3601 27.2597 26.9569
5 29.827 26.3491 26.9996
5 29.0991 24.4343 23.2353
5 26.7455 25.5195 23.2585
4 31.3464 24.9407 25.9489
4 31.1807 24.4356 24.3914
4 22.0641 26.8695 30.0355
4 22.3841 25.2521 30.0855
78
 Atoms. Timestep: 4000
2 19.9895 16.2314 17.7155
2 18.544 16.3604 18.1183
2 18.4239 16.5476 19.6648
1 18.0116 17.6117 17.3501
1 17.8207 17.5365 15.9587
1 17.131 18.6284 15.3094
1 16.9808 19.8728 15.9503
1 17.2744 19.9583 17.3544
1 17.8205 18.8478 18.0399
11 16.4523 20.893 15.1617
2 16.2045 22.139 15.8124
3 15.5736 23.062 14.8779
3 14.1316 23.4395 14.6837
9 14.9707 24.1888 15.5356
1 17.6412 15.2269 17.6692
1 16.2106 15.1957 17.8123
1 15.4185 14.0125 17.6076
1 16.0611 12.826 17.1281
1 17.4058 12.8689 16.9361
1 18.1717 14.0663 17.1382
11 15.2765 11.8398 16.6902
2 15.3606 11.7221 15.2762
3 14.4991 10.5236 14.8874
3 14.9861 9.69045 13.7703
9 15.0211 9.21403 15.0613
6 20.52 17.1139 18.026
6 20.058 16.1248 16.6494
6 20.4547 15.4436 18.26
6 19.1644 17.3758 19.9133
6 18.6909 15.6233 20.1871
6 17.4209 16.8623 19.8887
5 17.9866 16.6393 15.4116
5 16.9087 18.4874 14.2649
5 17.081 20.8533 17.9195
5 18.106 18.9734 19.0689
6 17.1605 22.5805 16.2139
6 15.5612 21.9946 16.7313
6 16.1778 23.2872 13.9925
6 13.4491 22.7673 15.2453
6 13.8902 23.757 13.6379
5 15.6731 16.0638 18.1247
5 14.31 13.9751 17.6448
5 17.9369 11.9237 16.7599
5 19.2181 13.9401 16.9924
6 16.3703 11.8226 14.7895
6 14.6894 12.5538 14.931
6 13.4813 10.6366 15.1489
6 15.9528 9.81251 13.232
6 14.2144 9.41146 13.0915
1 24.8393 27.1998 27.5886
1 24.0365 26.8073 28.6735
1 22.9341 25.9567 28.4009
1 22.6649 25.4365 27.108
1 23.4655 25.8366 26.0439
1 24.4945 26.7154 26.3328
2 25.3646 27.1782 25.1611
1 26.7262 26.4158 25.0049
1 27.7579 26.8099 25.8514
1 28.9468 26.0826 25.7036
1 29.2175 25.1443 24.6467
1 28.199 24.855 23.7387
1 26.9024 25.4305 23.9635
8 30.4049 24.5714 24.4046
8 22.0642 25.7405 29.3005
5 25.578 27.9839 27.6073
5 24.2337 27.2356 29.6586
5 21.7676 24.8861 26.881
5 23.48 25.3344 25.1323
6 25.5651 28.2608 25.2853
6 24.7995 27.1021 24.2193
5 27.6462 27.5857 26.5322
5 29.7721 26.3998 26.2308
5 28.3814 24.1245 22.9041
5 26.0976 25.1703 23.2969
4 31.2717 24.9316 24.6628
4 30.608 24.2364 23.3886
4 22.2374 25.9673 30.2269
4 21.2051 25.2068 29.252
78
 Atoms. Timestep: 5000
2 20.284 16.271 17.9508
2 18.7689 16.5073 18.0438
2 18.3008 16.4978 19.5402
1 18.4459 17.8448 17.2761
1 18.1619 17.8279 15.9443
1 17.6975 18.9357 15.2216
1 17.5363 20.1164 15.9216
1 17.966 20.1815 17.2524
1 18.4255 19.0878 17.9156
11 16.863 21.1205 15.236
2 16.6718 22.3339 15.8445
3 15.7525 23.2511 14.9663
3 14.2587 23.0533 15.1615
9 14.9241 24.1102 15.7753
1 17.9938 15.3375 17.397
1 16.5832 15.4348 17.4435
1 15.7536 14.4218 16.9749
1 16.3307 13.1575 16.6465
1 17.7099 13.0653 16.5566
1 18.611 14.0962 16.9223
11 15.4671 12.2627 16.1634
2 15.8662 11.0812 15.5455
3 14.6076 10.2848 15.1599
3 14.7118 8.77231 15.2045
9 13.8251 9.48054 16.0369
6 20.7877 17.1892 18.2295
6 20.6041 16.1178 16.9433
6 20.5736 15.4163 18.5549
6 18.7518 17.3293 20.0472
6 18.6112 15.5405 19.9993
6 17.2472 16.5504 19.7505
5 18.1953 16.9172 15.3423
5 17.3609 18.811 14.2081
5 17.9138 21.0798 17.7902
5 18.7135 19.2024 18.9753
6 17.7555 22.744 15.867
6 16.3897 22.2444 16.9234
6 16.0145 23.5028 13.9778
6 13.8615 22.2909 15.848
6 13.6109 23.3286 14.3303
5 16.0135 16.3452 17.8358
5 14.7385 14.5988 17.0057
5 18.2331 12.2879 16.1927
5 19.6622 14.0357 16.9502
6 16.3654 10.5013 16.2628
6 16.5159 11.3404 14.7024
6 13.8874 10.991 14.6509
6 15.5768 8.39335 15.6956
6 14.17 8.079 14.5176
1 25.1501 27.2837 27.9671
1 24.4589 26.7882 29.0644
1 23.2505 26.0707 29.0085
1 22.8208 25.6677 27.7118
1 23.4438 26.1814 26.5145
1 24.5759 27.0626 26.6543
2 25.278 27.5717 25.3285
1 26.1328 26.3849 24.7933
1 26.4859 25.2868 25.562
1 27.3478 24.3381 24.9596
1 27.8507 24.4614 23.6414
1 27.5474 25.5685 22.8593
1 26.642 26.4728 23.4647
8 28.6622 23.58 23.096
8 22.5256 25.748 30.1006
5 26.1086 27.8017 28.0756
5 24.7675 27.177 29.9994
5 21.9013 25.098 27.623
5 23.0742 25.8828 25.4962
6 25.9696 28.4072 25.5055
6 24.5184 27.957 24.6333
5 26.2635 25.1518 26.6627
5 27.6359 23.4898 25.6029
5 27.7808 25.6911 21.8582
5 26.3719 27.3781 22.8749
4 28.8111 22.949 23.7532
4 29.5785 24.044 22.8597
4 22.8021 26.1337 30.9646
4 21.6078 25.3129 30.095
78
 Atoms. Timestep: 6000
2 20.2919 16.5314 17.0428
2 18.8617 16.5827 17.5406
2 19.0338 16.631 19.0891
1 18.2593 17.7925 16.8913
1 17.5243 17.6772 15.6848
1 17.1146 18.8334 14.9629
1 17.3755 20.1128 15.4398
1 18.2101 20.2077 16.5744
1 18.5367 19.0714 17.3314
11 16.9634 21.2156 14.6997
2 16.8545 22.4439 15.4614
3 15.9394 23.3937 14.739
3 14.5208 23.6 15.2413
9 15.5223 24.5227 15.4238
1 18.0605 15.3077 17.2269
1 16.7172 15.3867 17.5857
1 15.9413 14.2652 17.3
1 16.4121 13.0919 16.663
1 17.8207 13.0297 16.3491
1 18.5722 14.1262 16.6659
11 15.4883 12.0784 16.4564
2 15.9569 10.8499 15.9065
3 14.7573 10.0059 15.6147
3 14.7847 8.49596 15.8977
9 14.2121 9.42162 16.7964
6 20.8242 17.3991 17.3922
6 20.4262 16.4764 15.9843
6 20.8179 15.6036 17.3194
6 19.5645 17.5215 19.3712
6 19.6083 15.8204 19.5714
6 18.0472 16.6373 19.6102
5 17.4397 16.7562 15.206
5 16.5141 18.7237 14.0689
5 18.5085 21.1611 16.8582
5 19.264 19.3045 18.1595
6 17.9054 22.8986 15.6588
6 16.5188 22.1807 16.4708
6 16.0931 23.5629 13.6831
6 14.2228 22.9509 16.0366
6 13.7702 23.6437 14.4839
5 16.376 16.2004 18.1271
5 14.9354 14.1883 17.6949
5 18.2177 12.206 15.835
5 19.6092 14.0665 16.5199
6 16.5408 10.2923 16.6414
6 16.629 10.8599 14.999
6 14.1609 10.4527 14.8174
6 15.6878 7.90497 16.1055
6 14.0376 7.87009 15.4854
1 25.6686 27.1206 28.4044
1 25.1484 26.7561 29.6426
1 23.8155 26.4217 29.7452
1 22.9427 26.5858 28.6114
1 23.5398 26.8408 27.3803
1 24.8908 27.0826 27.229
2 25.5265 27.2908 25.8626
1 25.7852 26.121 24.9067
1 25.7592 24.8283 25.3768
1 26.2187 23.8788 24.4871
1 26.6494 24.1924 23.1674
1 26.8755 25.4997 22.7574
1 26.4164 26.4721 23.6735
8 27.0119 23.2958 22.2348
8 23.3201 25.9485 30.9102
5 26.7418 27.1578 28.2144
5 25.8207 26.805 30.5033
5 21.9133 26.3485 28.4913
5 22.9034 26.9041 26.509
6 26.465 27.7686 26.0471
6 24.8794 27.9723 25.3447
5 25.3515 24.5691 26.3436
5 26.2249 22.9034 24.806
5 27.3689 25.7862 21.7646
5 26.4054 27.4771 23.2849
4 26.7892 22.3258 22.3702
4 27.9049 23.4563 21.7073
4 23.8436 26.0805 31.7335
4 22.3561 26.0773 31.0831
78
 Atoms. Timestep: 7000
2 20.692 16.2755 16.4754
2 19.2761 16.5247 17.0734
2 19.6113 16.6293 18.5833
1 18.6527 17.7279 16.416
1 18.0603 17.6762 15.1162
1 17.5016 18.8417 14.5543
1 17.5239 20.0887 15.2759
1 18.2219 20.1834 16.522
1 18.7938 18.999 16.9745
11 16.7179 21.1179 14.8299
2 16.764 22.3637 15.4963
3 15.6782 23.1643 14.8133
3 14.232 23.1154 15.3338
9 15.0501 24.1732 15.541
1 18.2552 15.3236 16.8641
1 17.0324 15.4066 17.5687
1 16.1131 14.3776 17.6353
1 16.4785 13.2402 16.9277
1 17.7912 13.1165 16.2759
1 18.6453 14.189 16.197
11 15.502 12.3123 16.8441
2 15.688 11.1057 16.1231
3 14.3654 10.3291 16.1821
3 14.3134 8.83418 16.3282
9 13.9571 9.65702 17.3736
6 21.3182 17.1463 16.5874
6 20.6758 15.9903 15.434
6 21.15 15.4391 16.946
6 20.5772 17.0946 18.9071
6 19.9039 15.6693 18.982
6 18.7595 17.0117 19.1499
5 17.969 16.6842 14.6462
5 17.0364 18.8095 13.5414
5 18.4037 21.1425 17.0129
5 19.2602 19.0316 17.9903
6 17.6943 22.9198 15.4732
6 16.3729 22.2343 16.5489
6 15.7932 23.1815 13.7199
6 14.0331 22.3215 16.0873
6 13.4441 23.4598 14.6144
5 16.7588 16.2406 18.1317
5 15.1234 14.3939 18.1607
5 18.0916 12.1792 15.8984
5 19.6709 13.9881 15.8157
6 16.4704 10.6463 16.718
6 16.149 11.4102 15.1807
6 13.531 10.7537 15.6637
6 15.2955 8.4318 16.3574
6 13.6411 8.3189 15.6373
1 25.3105 25.8788 27.9125
1 24.8797 25.4886 29.1972
1 23.9264 26.221 29.8989
1 23.3159 27.3215 29.3174
1 23.7816 27.8385 28.0439
1 24.6855 27.0194 27.3039
2 25.0166 27.3992 25.7978
1 25.5826 26.3768 24.844
1 24.9302 25.1496 24.7084
1 25.5329 24.1397 23.917
1 26.7898 24.3126 23.2608
1 27.4683 25.5462 23.3823
1 26.8054 26.5579 24.1594
8 27.3205 23.3265 22.5843
8 23.3634 25.7989 30.9683
5 25.9297 25.2029 27.4006
5 25.3499 24.6139 29.6811
5 22.5468 27.8621 29.8524
5 23.2756 28.7191 27.6713
6 25.4249 28.4018 25.7452
6 24.0595 27.5708 25.3149
5 24.0277 24.9493 25.3075
5 25.0116 23.1763 23.7168
5 28.469 25.7049 23.1921
5 27.3704 27.4774 24.2147
4 27.2298 22.3593 22.8596
4 28.2175 23.4501 22.3692
4 23.4537 24.8016 31.187
4 22.4121 26.034 31.188
78
 Atoms. Timestep: 8000
2 20.2645 16.0988 15.2588
2 19.1667 16.4139 16.2857
2 19.8368 16.608 17.5988
1 18.4962 17.7459 15.7991
1 17.7447 17.6627 14.5693
1 17.0328 18.7758 14.0967
1 17.0315 19.9389 14.8608
1 17.7166 20.0112 16.0622
1 18.4094 18.9315 16.6011
11 16.352 21.0476 14.3669
2 16.1878 22.2466 15.1474
3 15.3611 23.2513 14.378
3 13.8553 23.569 14.6482
9 14.9551 24.3092 15.1455
1 18.1193 15.271 16.4827
1 16.9635 15.4371 17.2947
1 16.0608 14.3489 17.4523
1 16.2623 13.0861 16.8414
1 17.3931 12.8741 16.1042
1 18.3463 13.9167 16.0182
11 15.3408 12.0951 17.1396
2 15.6518 10.7694 16.7923
3 14.4281 9.863 16.8578
3 14.639 8.38086 16.6841
9 14.1797 8.89254 17.9212
6 20.9117 16.9485 15.2134
6 19.82 15.9475 14.3142
6 20.7692 15.1635 15.3038
6 20.615 17.3738 17.4944
6 20.2847 15.7343 18.0457
6 19.1442 17.0483 18.2638
5 17.7425 16.8154 13.9054
5 16.4702 18.7314 13.2173
5 17.7329 20.9484 16.6118
5 18.8757 18.9665 17.5622
6 17.1318 22.7726 15.2955
6 15.6658 22.0339 16.1517
6 15.8244 23.423 13.3712
6 13.3071 22.9507 15.3592
6 13.2071 24.0443 13.915
5 16.7673 16.3362 17.8099
5 15.1155 14.4612 18.0006
5 17.6679 12.0095 15.5334
5 19.3348 13.6744 15.5554
6 16.4294 10.3398 17.4572
6 16.0949 10.6784 15.7725
6 13.6957 10.3304 16.2329
6 15.6679 7.95029 16.6546
6 13.9661 7.80648 16.0696
1 25.6126 27.6448 28.9173
1 25.2326 27.307 30.2585
1 24.0743 26.4831 30.4466
1 23.4094 26.0194 29.281
1 23.9023 26.2475 27.9672
1 24.968 27.1124 27.7901
2 25.454 27.5393 26.3988
1 26.0214 26.4408 25.445
1 26.4659 26.9094 24.1253
1 26.9283 25.974 23.1828
1 27.2131 24.6509 23.5757
1 26.8345 24.2063 24.8593
1 26.2164 25.0723 25.7834
8 27.7725 23.8346 22.7268
8 23.7144 26.1279 31.6889
5 26.4718 28.3272 28.7143
5 25.9342 27.5946 30.9657
5 22.5472 25.3903 29.3533
5 23.4347 25.8123 27.0819
6 25.9741 28.4842 26.2694
6 24.4523 27.7091 26.0477
5 26.4464 27.8906 23.7774
5 27.2808 26.358 22.2323
5 26.9759 23.1304 25.143
5 26.0421 24.7718 26.8316
4 28.0109 23.9787 21.7206
4 27.5403 22.9019 22.879
4 23.8809 26.6126 32.6153
4 22.8033 25.7332 31.7428
78
 Atoms. Timestep: 9000
2 19.9957 16.1023 14.4801
2 19.1516 16.3239 15.8001
2 20.3156 16.5168 16.8194
1 18.3408 17.5588 15.5263
1 17.2592 17.416 14.6196
1 16.5036 18.5311 14.3225
1 16.8097 19.82 14.9608
1 17.9175 19.936 15.8021
1 18.7188 18.8183 16.0911
11 15.9438 20.8779 14.6705
2 16.2718 22.2418 14.9541
3 15.3214 23.1819 14.1595
3 14.1436 23.8677 14.8243
9 15.3392 24.563 14.6095
1 18.2549 15.107 16.1103
1 17.2411 15.2679 17.075
1 16.3975 14.2492 17.5163
1 16.6638 12.9198 17.1408
1 17.7154 12.7117 16.1809
1 18.5818 13.755 15.7686
11 15.8058 11.8998 17.6448
2 15.6992 10.7356 16.8114
3 15.0027 9.5275 17.4683
3 13.5351 9.63724 17.8001
9 14.0102 8.73333 16.8124
6 20.5192 17.0053 14.0753
6 19.4612 15.6513 13.6636
6 20.7604 15.3402 14.6988
6 21.0384 17.2026 16.4653
6 20.8707 15.6381 17.0903
6 19.8007 16.7513 17.7462
5 17.003 16.4183 14.2544
5 15.6446 18.3053 13.6571
5 18.2286 20.921 16.1887
5 19.5832 18.8936 16.7038
6 17.2959 22.5034 14.5975
6 16.1726 22.4492 15.9938
6 15.104 22.9288 13.1173
6 13.877 23.5711 15.8286
6 13.3388 24.1901 14.1941
5 16.9826 16.257 17.4335
5 15.5483 14.4825 18.1371
5 17.8786 11.7369 15.7322
5 19.4408 13.587 15.1649
6 16.7376 10.3168 16.7172
6 15.3768 10.9239 15.7854
6 15.5247 8.95939 18.1685
6 12.9131 10.333 17.2921
6 13.2198 9.2625 18.7956
1 25.9684 26.8173 28.4316
1 25.9055 26.4038 29.7481
1 24.743 26.5242 30.5049
1 23.6157 27.0805 29.9297
1 23.6181 27.4754 28.5771
1 24.825 27.3999 27.8182
2 24.7822 27.675 26.3283
1 25.4538 26.6146 25.5037
1 26.58 26.9199 24.6933
1 27.3024 25.9015 23.992
1 26.8281 24.6266 24.0223
1 25.6765 24.2847 24.7902
1 25.012 25.2831 25.5103
8 27.5004 23.7089 23.3551
8 24.7174 26.0644 31.7541
5 26.8562 26.5047 27.8453
5 26.6983 25.7033 30.1049
5 22.6618 27.2861 30.4141
5 22.6895 27.7967 28.1576
6 25.2613 28.5961 26.0345
6 23.7805 27.8237 25.9592
5 26.8472 27.9699 24.5932
5 28.2128 26.199 23.448
5 25.2732 23.3049 24.8992
5 24.2168 25.0764 26.1725
4 28.255 24.0113 22.7068
4 26.8138 23.0317 23.0157
4 25.5042 26.092 32.4012
4 23.8653 26.0251 32.2844
78
 Atoms. Timestep: 10000
2 20.0478 15.2941 13.5194
2 19.5981 15.8156 14.9265
2 20.8587 15.8218 15.8989
1 18.7604 17.2074 14.9042
1 17.549 17.2137 14.1898
1 16.8442 18.3953 13.9203
1 17.1371 19.6092 14.6581
1 18.2152 19.5788 15.5823
1 19.0412 18.4043 15.6312
11 16.3569 20.6996 14.3455
2 15.9112 21.4056 15.4715
3 15.367 22.7174 15.0197
3 13.911 22.8223 14.7499
9 14.5093 23.5351 15.8278
1 18.6021 14.8141 15.539
1 18.0663 15.0685 16.7999
1 17.2572 14.166 17.51
1 16.9533 12.9055 16.9985
1 17.4667 12.5777 15.72
1 18.406 13.4577 15.0796
11 16.0341 12.1045 17.7093
2 14.9628 11.6816 16.9214
3 14.3119 10.6091 17.7662
3 13.0692 10.7992 18.5416
9 13.1116 10.1226 17.2906
6 20.7352 15.8823 12.9052
6 19.1574 15.2793 12.8568
6 20.4671 14.2435 13.6213
6 21.3032 16.7474 15.5239
6 21.4579 14.907 15.6967
6 20.7049 16.071 16.9826
5 17.1601 16.2603 13.8245
5 15.9656 18.4495 13.34
5 18.4648 20.4599 16.2025
5 19.8495 18.4721 16.3319
6 16.7496 21.5852 16.1971
6 15.1622 20.7332 15.8437
6 16.0549 23.2953 14.4485
6 13.3146 21.9391 14.9975
6 13.5793 23.3068 13.8251
5 18.3001 16.0334 17.1674
5 16.8548 14.4857 18.4933
5 17.3598 11.6023 15.2298
5 18.8846 13.0773 14.1772
6 15.3363 11.1068 16.0725
6 14.3303 12.5029 16.62
6 15.0707 9.97658 18.1432
6 12.4646 11.7159 18.5842
6 12.7931 10.0401 19.2223
1 24.3502 25.9551 28.8556
1 24.6863 25.7352 30.2117
1 25.1488 26.8685 31.0106
1 25.3423 28.1208 30.4379
1 25.1599 28.2503 28.9998
1 24.6869 27.1728 28.2216
2 24.2671 27.4071 26.7766
1 25.1109 26.5891 25.7599
1 26.5186 26.7946 25.5092
1 27.2491 26.1918 24.4715
1 26.6578 25.1708 23.7458
1 25.2758 24.8583 24.045
1 24.4868 25.5166 24.9904
8 27.291 24.5589 22.7556
8 25.331 26.7511 32.3401
5 23.787 25.2113 28.4142
5 24.4257 24.8093 30.6624
5 25.53 28.9562 31.0801
5 25.5295 29.1633 28.4909
6 24.5822 28.3915 26.5588
6 23.2582 27.4853 26.6015
5 27.1823 27.4615 26.0382
5 28.2336 26.5463 24.384
5 24.7865 24.0085 23.472
5 23.3987 25.3425 25.1341
4 28.1182 24.9527 22.2577
4 26.6759 24.1093 21.9812
4 25.1155 25.9603 32.9331
4 25.3445 27.6162 32.8449
