LAMMPS data file Created by LigParGen - (Written by Leela S. Dodda)

      29 atoms
      30 bonds
      48 angles
      68 dihedrals
      16 impropers
 
      29 atom types
      30 bond types
      48 angle types
      68 dihedral types
      16 improper types
 
   -2.961570    47.038430 xlo xhi
   -0.742220    49.257780 ylo yhi
   -2.776920    47.223080 zlo zhi

Masses

       1     12.011  
       2     12.011  
       3     12.011  
       4     12.011  
       5     12.011  
       6     12.011  
       7     12.011  
       8     12.011  
       9     12.011  
      10     12.011  
      11     12.011  
      12     12.011  
      13     12.011  
      14     14.007  
      15     14.007  
      16      1.008  
      17      1.008  
      18      1.008  
      19      1.008  
      20      1.008  
      21      1.008  
      22      1.008  
      23      1.008  
      24      1.008  
      25      1.008  
      26      1.008  
      27      1.008  
      28      1.008  
      29      1.008  

Pair Coeffs 

       1      0.070  3.5500000 
       2      0.070  3.5500000 
       3      0.070  3.5500000 
       4      0.070  3.5500000 
       5      0.070  3.5500000 
       6      0.070  3.5500000 
       7      0.066  3.5000000 
       8      0.070  3.5500000 
       9      0.070  3.5500000 
      10      0.070  3.5500000 
      11      0.070  3.5500000 
      12      0.070  3.5500000 
      13      0.070  3.5500000 
      14      0.170  3.3000000 
      15      0.170  3.3000000 
      16      0.030  2.4200000 
      17      0.030  2.4200000 
      18      0.030  2.4200000 
      19      0.030  2.4200000 
      20      0.030  2.5000000 
      21      0.030  2.5000000 
      22      0.030  2.4200000 
      23      0.030  2.4200000 
      24      0.030  2.4200000 
      25      0.030  2.4200000 
      26      0.000  0.0000000 
      27      0.000  0.0000000 
      28      0.000  0.0000000 
      29      0.000  0.0000000 

Bond Coeffs 

       1   469.0000     1.4000 
       2   469.0000     1.4000 
       3   469.0000     1.4000 
       4   469.0000     1.4000 
       5   469.0000     1.4000 
       6   317.0000     1.5100 
       7   317.0000     1.5100 
       8   469.0000     1.4000 
       9   469.0000     1.4000 
      10   469.0000     1.4000 
      11   469.0000     1.4000 
      12   469.0000     1.4000 
      13   481.0000     1.3400 
      14   481.0000     1.3400 
      15   367.0000     1.0800 
      16   367.0000     1.0800 
      17   367.0000     1.0800 
      18   367.0000     1.0800 
      19   340.0000     1.0900 
      20   340.0000     1.0900 
      21   367.0000     1.0800 
      22   367.0000     1.0800 
      23   367.0000     1.0800 
      24   367.0000     1.0800 
      25   434.0000     1.0100 
      26   434.0000     1.0100 
      27   434.0000     1.0100 
      28   434.0000     1.0100 
      29   469.0000     1.4000 
      30   469.0000     1.4000 

Angle Coeffs 

       1     63.000    120.000
       2     63.000    120.000
       3     63.000    120.000
       4     63.000    120.000
       5     70.000    120.000
       6     40.000    109.500
       7     70.000    120.000
       8     63.000    120.000
       9     63.000    120.000
      10     63.000    120.000
      11     70.000    120.000
      12     70.000    120.000
      13     70.000    120.000
      14     35.000    120.000
      15     35.000    120.000
      16     35.000    120.000
      17     35.000    120.000
      18     35.000    109.500
      19     35.000    109.500
      20     35.000    120.000
      21     35.000    120.000
      22     35.000    120.000
      23     35.000    120.000
      24     35.000    116.000
      25     35.000    116.000
      26     35.000    116.000
      27     35.000    116.000
      28     35.000    109.500
      29     63.000    120.000
      30     35.000    120.000
      31     43.600    106.400
      32     63.000    120.000
      33     35.000    120.000
      34     35.000    120.000
      35     35.000    120.000
      36     70.000    120.000
      37     63.000    120.000
      38     35.000    120.000
      39     35.000    120.000
      40     33.000    107.800
      41     70.000    120.000
      42     43.600    106.400
      43     35.000    120.000
      44     35.000    109.500
      45     63.000    120.000
      46     63.000    120.000
      47     35.000    120.000
      48     70.000    120.000

Dihedral Coeffs  

       1      0.000      7.250      0.000      0.000 
       2      0.000      7.250      0.000      0.000 
       3      0.000      7.250      0.000      0.000 
       4      0.000      0.000      0.000      0.000 
       5      0.000      0.000      0.000      0.000 
       6      0.000      7.250      0.000      0.000 
       7      0.000      7.250      0.000      0.000 
       8      0.000      7.250      0.000      0.000 
       9      0.000      2.030      0.000      0.000 
      10      0.000      2.030      0.000      0.000 
      11      0.000      2.030      0.000      0.000 
      12      0.000      7.250      0.000      0.000 
      13      0.000      7.250      0.000      0.000 
      14      0.000      7.250      0.000      0.000 
      15      0.000      7.250      0.000      0.000 
      16      0.000      2.030      0.000      0.000 
      17      0.000      7.250      0.000      0.000 
      18      0.000      2.030      0.000      0.000 
      19      0.000      7.250      0.000      0.000 
      20      0.000      7.250      0.000      0.000 
      21      0.000      0.000      0.000      0.000 
      22      0.000      7.250      0.000      0.000 
      23      0.000      0.000      0.000      0.000 
      24      0.000      7.250      0.000      0.000 
      25      0.000      0.000      0.000      0.000 
      26      0.000      7.250      0.000      0.000 
      27      0.000      7.250      0.000      0.000 
      28      0.000      7.250      0.000      0.000 
      29      0.000      7.250      0.000      0.000 
      30      0.000      7.250      0.000      0.000 
      31      0.000      7.250      0.000      0.000 
      32      0.000      0.000      0.000      0.000 
      33      0.000      7.250      0.000      0.000 
      34      0.000      2.030      0.000      0.000 
      35      0.000      0.000      0.000      0.000 
      36      0.000      0.000      0.000      0.000 
      37      0.000      7.250      0.000      0.000 
      38      0.000      7.250      0.000      0.000 
      39      0.000      7.250      0.000      0.000 
      40      0.000      7.250      0.000      0.000 
      41      0.000      7.250      0.000      0.000 
      42      0.000      7.250      0.000      0.000 
      43      0.000      0.000      0.000      0.000 
      44      0.000      7.250      0.000      0.000 
      45      0.000      7.250      0.000      0.000 
      46      0.000      7.250      0.000      0.000 
      47      0.000      7.250      0.000      0.000 
      48      0.000      7.250      0.000      0.000 
      49      0.000      7.250      0.000      0.000 
      50      0.000      0.000      0.000      0.000 
      51      0.000      7.250      0.000      0.000 
      52      0.000      7.250      0.000      0.000 
      53      0.000      7.250      0.000      0.000 
      54      0.000      7.250      0.000      0.000 
      55      0.000      7.250      0.000      0.000 
      56      0.000      7.250      0.000      0.000 
      57      0.000      7.250      0.000      0.000 
      58      0.000      7.250      0.000      0.000 
      59      0.000      7.250      0.000      0.000 
      60      0.000      2.030      0.000      0.000 
      61      0.000      0.000      0.000      0.000 
      62      0.000      7.250      0.000      0.000 
      63      0.000      7.250      0.000      0.000 
      64      0.000      0.000      0.000      0.000 
      65      0.000      7.250      0.000      0.000 
      66      0.000      7.250      0.000      0.000 
      67      0.000      2.030      0.000      0.000 
      68      0.000      7.250      0.000      0.000 

Improper Coeffs 

       1      2.500      -1       2 
       2      2.500      -1       2 
       3      2.500      -1       2 
       4      2.500      -1       2 
       5      2.500      -1       2 
       6      2.500      -1       2 
       7      2.500      -1       2 
       8      2.500      -1       2 
       9      0.000      -1       2 
      10      0.000      -1       2 
      11      2.500      -1       2 
      12      2.500      -1       2 
      13      2.500      -1       2 
      14      2.500      -1       2 
      15      0.000      -1       2 
      16      0.000      -1       2 

Atoms 

     1      1      1 -0.12890000    1.000  1.00000  0.00000
     2      1      2 -0.20610000   -0.388  1.00000  0.00000
     3      1      3 0.32180000   -1.055  1.00000  1.21492
     4      1      4 -0.20570000   -0.359  1.00000  2.42936
     5      1      5 -0.10210000    1.038  1.00000  2.41825
     6      1      6 -0.04840000    1.708  1.00000  1.20677
     7      1      7 -0.36760000    3.126  0.91770  1.10466
     8      1      8 -0.05860000    4.421  0.76281  0.53757
     9      1      9 -0.09650000    5.470  1.61730  0.85458
    10      1     10 -0.20960000    6.600  1.63574  0.04090
    11      1     11 0.32740000    6.670  0.80090 -1.07910
    12      1     12 -0.21390000    5.640 -0.08907 -1.35993
    13      1     13 -0.11440000    4.508 -0.09334 -0.56182
    14      1     14 -1.24110000    7.770  0.89642 -1.97011
    15      1     15 -1.24480000   -2.470  0.99843  1.21492
    16      1     16 0.14560000    1.512  1.00113 -0.89584
    17      1     17 0.14360000   -0.913  0.99888 -0.88898
    18      1     18 0.14600000   -0.873  0.99887  3.32373
    19      1     19 0.14720000    1.565  1.00113  3.30448
    20      1     20 0.19280000    3.239  0.14673  1.83906
    21      1     21 0.19280000    3.098  1.88552  0.65071
    22      1     22 0.14990000    5.411  2.22915  1.68304
    23      1     23 0.14500000    7.385  2.26642  0.26434
    24      1     24 0.14250000    5.719 -0.74222 -2.15604
    25      1     25 0.14920000    3.726 -0.72927 -0.77958
    26      1     26 0.50860000    8.503  1.52401 -1.77984
    27      1     27 0.50860000    7.798  0.33330 -2.77692
    28      1     28 0.50830000   -2.961  0.99737  0.36176
    29      1     29 0.50830000   -2.962  0.99733  2.06752

Bonds 

     1      1      2      1
     2      2      3      2
     3      3      4      3
     4      4      5      4
     5      5      6      1
     6      6      7      6
     7      7      8      7
     8      8      9      8
     9      9     10      9
    10     10     11     10
    11     11     12     11
    12     12     13      8
    13     13     14     11
    14     14     15      3
    15     15     16      1
    16     16     17      2
    17     17     18      4
    18     18     19      5
    19     19     20      7
    20     20     21      7
    21     21     22      9
    22     22     23     10
    23     23     24     12
    24     24     25     13
    25     25     26     14
    26     26     27     14
    27     27     28     15
    28     28     29     15
    29     29      6      5
    30     30     13     12

Angles 

     1      1      1      2      3
     2      2      2      3      4
     3      3      3      4      5
     4      4      2      1      6
     5      5      1      6      7
     6      6      6      7      8
     7      7      7      8      9
     8      8      8      9     10
     9      9      9     10     11
    10     10     10     11     12
    11     11      7      8     13
    12     12     10     11     14
    13     13      2      3     15
    14     14      2      1     16
    15     15      1      2     17
    16     16      3      4     18
    17     17      4      5     19
    18     18      6      7     20
    19     19      6      7     21
    20     20      8      9     22
    21     21      9     10     23
    22     22     11     12     24
    23     23      8     13     25
    24     24     11     14     26
    25     25     11     14     27
    26     26      3     15     28
    27     27      3     15     29
    28     28      8      7     20
    29     29      8     13     12
    30     30      6      1     16
    31     31     26     14     27
    32     32      4      5      6
    33     33      6      5     19
    34     34      3      2     17
    35     35     12     13     25
    36     36      5      6      7
    37     37      9      8     13
    38     38     11     10     23
    39     39     13     12     24
    40     40     20      7     21
    41     41     12     11     14
    42     42     28     15     29
    43     43     10      9     22
    44     44      8      7     21
    45     45     11     12     13
    46     46      1      6      5
    47     47      5      4     18
    48     48      4      3     15

Dihedrals

     1      1      4      3      2      1 
     2      2      5      4      3      2 
     3      3      6      1      2      3 
     4      4      8      7      6      1 
     5      5      9      8      7      6 
     6      6     10      9      8      7 
     7      7     11     10      9      8 
     8      8     12     11     10      9 
     9      9     26     14     11     10 
    10     10     28     15      3      2 
    11     11     26     14     11     12 
    12     12     22      9      8      7 
    13     13     14     11     12     13 
    14     14     15      3      2      1 
    15     15      6      5      4      3 
    16     16     29     15      3      4 
    17     17     18      4      3      2 
    18     18     29     15      3      2 
    19     19     19      5      4     18 
    20     20      5      6      1      2 
    21     21     13      8      7      6 
    22     22     15      3      4      5 
    23     23     21      7      8     13 
    24     24      7      6      1      2 
    25     25     21      7      8      9 
    26     26     24     12     11     14 
    27     27     17      2      1      6 
    28     28     13     12     11     10 
    29     29     11     12     13      8 
    30     30     25     13      8      9 
    31     31      7      6      5      4 
    32     32     21      7      6      1 
    33     33     18      4      5      6 
    34     34     28     15      3      4 
    35     35     20      7      6      1 
    36     36     20      7      8      9 
    37     37     25     13     12     24 
    38     38     16      1      6      7 
    39     39     24     12     13      8 
    40     40     19      5      6      7 
    41     41     19      5      4      3 
    42     42     23     10      9     22 
    43     43     21      7      6      5 
    44     44     19      5      6      1 
    45     45     25     13      8      7 
    46     46     16      1      6      5 
    47     47     22      9      8     13 
    48     48     23     10     11     14 
    49     49     17      2      3     15 
    50     50     20      7      8     13 
    51     51     24     12     11     10 
    52     52     22      9     10     11 
    53     53     14     11     10      9 
    54     54     23     10     11     12 
    55     55     18      4      3     15 
    56     56     13      8      9     10 
    57     57     12     13      8      9 
    58     58     16      1      2      3 
    59     59      4      5      6      1 
    60     60     27     14     11     12 
    61     61      8      7      6      5 
    62     62     25     13     12     11 
    63     63     17      2      1     16 
    64     64     20      7      6      5 
    65     65     23     10      9      8 
    66     66     17      2      3      4 
    67     67     27     14     11     10 
    68     68     12     13      8      7 

Impropers

     1      1      6      1      5      7 
     2      2      8      9     13      7 
     3      3     11     10     12     14 
     4      4      3      2      4     15 
     5      5      1      2      6     16 
     6      6      2     17      3      1 
     7      7      4     18      3      5 
     8      8      5     19      4      6 
     9      9      7     20      6      8 
    10     10      7     21      6      8 
    11     11      9     10     22      8 
    12     12     10      9     11     23 
    13     13     12     11     13     24 
    14     14     13     25     12      8 
    15     15     14     26     27     11 
    16     16     15      3     28     29 
