LAMMPS data file Created by LigParGen - (Written by Leela S. Dodda)

      78 atoms
      82 bonds
     142 angles
     200 dihedrals
      48 impropers
 
      78 atom types
      82 bond types
     142 angle types
     200 dihedral types
      48 improper types
 
  -13.665070    36.334930 xlo xhi
   -5.440500    44.559500 ylo yhi
   -3.909130    46.090870 zlo zhi

Masses

       1      1.008  
       2     15.999  
       3     12.011  
       4     12.011  
       5     12.011  
       6      1.008  
       7     14.007  
       8      1.008  
       9      1.008  
      10     12.011  
      11      1.008  
      12     12.011  
      13     12.011  
      14      1.008  
      15     12.011  
      16      1.008  
      17     12.011  
      18      1.008  
      19     12.011  
      20      1.008  
      21     12.011  
      22     12.011  
      23      1.008  
      24      1.008  
      25     12.011  
      26     12.011  
      27      1.008  
      28     12.011  
      29      1.008  
      30     12.011  
      31      1.008  
      32     12.011  
      33      1.008  
      34     14.007  
      35      1.008  
      36      1.008  
      37     15.999  
      38      1.008  
      39      1.008  
      40     12.011  
      41     12.011  
      42     12.011  
      43      1.008  
      44     12.011  
      45      1.008  
      46     12.011  
      47      1.008  
      48     12.011  
      49      1.008  
      50     12.011  
      51     12.011  
      52     12.011  
      53     12.011  
      54      1.008  
      55      1.008  
      56      1.008  
      57      1.008  
      58      1.008  
      59      1.008  
      60     12.011  
      61     12.011  
      62      1.008  
      63     12.011  
      64      1.008  
      65     12.011  
      66      1.008  
      67     12.011  
      68      1.008  
      69     15.999  
      70     12.011  
      71     12.011  
      72      1.008  
      73      1.008  
      74      1.008  
      75     15.999  
      76     12.011  
      77      1.008  
      78      1.008  

Pair Coeffs 

       1      0.000  0.0000000 
       2      0.170  3.1200000 
       3      0.066  3.5000000 
       4      0.066  3.5000000 
       5      0.066  3.5000000 
       6      0.030  2.5000000 
       7      0.170  3.3000000 
       8      0.030  2.5000000 
       9      0.030  2.5000000 
      10      0.070  3.5500000 
      11      0.000  0.0000000 
      12      0.070  3.5500000 
      13      0.070  3.5500000 
      14      0.030  2.4200000 
      15      0.070  3.5500000 
      16      0.030  2.4200000 
      17      0.070  3.5500000 
      18      0.030  2.4200000 
      19      0.070  3.5500000 
      20      0.030  2.4200000 
      21      0.066  3.5000000 
      22      0.070  3.5500000 
      23      0.030  2.5000000 
      24      0.030  2.5000000 
      25      0.070  3.5500000 
      26      0.070  3.5500000 
      27      0.030  2.4200000 
      28      0.070  3.5500000 
      29      0.030  2.4200000 
      30      0.070  3.5500000 
      31      0.030  2.4200000 
      32      0.070  3.5500000 
      33      0.030  2.4200000 
      34      0.170  3.3000000 
      35      0.000  0.0000000 
      36      0.000  0.0000000 
      37      0.140  2.9000000 
      38      0.030  2.5000000 
      39      0.030  2.5000000 
      40      0.070  3.5500000 
      41      0.070  3.5500000 
      42      0.070  3.5500000 
      43      0.030  2.4200000 
      44      0.070  3.5500000 
      45      0.030  2.4200000 
      46      0.070  3.5500000 
      47      0.030  2.4200000 
      48      0.070  3.5500000 
      49      0.030  2.4200000 
      50      0.066  3.5000000 
      51      0.066  3.5000000 
      52      0.066  3.5000000 
      53      0.070  3.5500000 
      54      0.030  2.5000000 
      55      0.030  2.5000000 
      56      0.030  2.5000000 
      57      0.030  2.5000000 
      58      0.030  2.5000000 
      59      0.030  2.5000000 
      60      0.070  3.5500000 
      61      0.070  3.5500000 
      62      0.030  2.4200000 
      63      0.070  3.5500000 
      64      0.030  2.4200000 
      65      0.070  3.5500000 
      66      0.030  2.4200000 
      67      0.070  3.5500000 
      68      0.030  2.4200000 
      69      0.140  2.9000000 
      70      0.066  3.5000000 
      71      0.083  3.4500000 
      72      0.030  2.5000000 
      73      0.030  2.5000000 
      74      0.030  2.5000000 
      75      0.140  2.9000000 
      76      0.083  3.4500000 
      77      0.030  2.5000000 
      78      0.030  2.5000000 

Bond Coeffs 

       1   553.0000     0.9450 
       2   320.0000     1.4100 
       3   268.0000     1.5290 
       4   268.0000     1.5290 
       5   340.0000     1.0900 
       6   382.0000     1.4480 
       7   340.0000     1.0900 
       8   340.0000     1.0900 
       9   481.0000     1.3400 
      10   434.0000     1.0100 
      11   469.0000     1.4000 
      12   469.0000     1.4000 
      13   367.0000     1.0800 
      14   469.0000     1.4000 
      15   367.0000     1.0800 
      16   469.0000     1.4000 
      17   367.0000     1.0800 
      18   469.0000     1.4000 
      19   367.0000     1.0800 
      20   317.0000     1.5100 
      21   317.0000     1.5100 
      22   340.0000     1.0900 
      23   340.0000     1.0900 
      24   469.0000     1.4000 
      25   469.0000     1.4000 
      26   367.0000     1.0800 
      27   469.0000     1.4000 
      28   367.0000     1.0800 
      29   469.0000     1.4000 
      30   367.0000     1.0800 
      31   469.0000     1.4000 
      32   367.0000     1.0800 
      33   481.0000     1.3400 
      34   434.0000     1.0100 
      35   434.0000     1.0100 
      36   320.0000     1.4100 
      37   340.0000     1.0900 
      38   340.0000     1.0900 
      39   450.0000     1.3640 
      40   469.0000     1.4000 
      41   469.0000     1.4000 
      42   367.0000     1.0800 
      43   469.0000     1.4000 
      44   367.0000     1.0800 
      45   469.0000     1.4000 
      46   367.0000     1.0800 
      47   469.0000     1.4000 
      48   367.0000     1.0800 
      49   317.0000     1.5100 
      50   268.0000     1.5290 
      51   268.0000     1.5290 
      52   317.0000     1.5100 
      53   340.0000     1.0900 
      54   340.0000     1.0900 
      55   340.0000     1.0900 
      56   340.0000     1.0900 
      57   340.0000     1.0900 
      58   340.0000     1.0900 
      59   469.0000     1.4000 
      60   469.0000     1.4000 
      61   367.0000     1.0800 
      62   469.0000     1.4000 
      63   367.0000     1.0800 
      64   469.0000     1.4000 
      65   367.0000     1.0800 
      66   469.0000     1.4000 
      67   367.0000     1.0800 
      68   450.0000     1.3640 
      69   320.0000     1.4100 
      70   280.0000     1.5100 
      71   340.0000     1.0900 
      72   340.0000     1.0900 
      73   340.0000     1.0880 
      74   320.0000     1.4100 
      75   260.0000     1.5200 
      76   340.0000     1.0880 
      77   340.0000     1.0880 
      78   469.0000     1.4000 
      79   469.0000     1.4000 
      80   469.0000     1.4000 
      81   469.0000     1.4000 
      82   320.0000     1.4100 

Angle Coeffs 

       1     55.000    108.500
       2     50.000    109.500
       3     50.000    109.500
       4     35.000    109.500
       5     56.200    109.470
       6     37.500    110.700
       7     37.500    110.700
       8     50.000    116.000
       9     35.000    109.500
      10     70.000    120.000
      11     70.000    120.000
      12     35.000    120.000
      13     63.000    120.000
      14     35.000    120.000
      15     63.000    120.000
      16     35.000    120.000
      17     63.000    120.000
      18     35.000    120.000
      19     70.000    120.000
      20     40.000    109.500
      21     35.000    109.500
      22     35.000    109.500
      23     70.000    120.000
      24     70.000    120.000
      25     35.000    120.000
      26     63.000    120.000
      27     35.000    120.000
      28     63.000    120.000
      29     35.000    120.000
      30     63.000    120.000
      31     35.000    120.000
      32     70.000    120.000
      33     35.000    116.000
      34     35.000    116.000
      35     50.000    109.500
      36     37.500    110.700
      37     37.500    110.700
      38     75.000    111.000
      39     70.000    120.000
      40     70.000    120.000
      41     35.000    120.000
      42     63.000    120.000
      43     35.000    120.000
      44     63.000    120.000
      45     35.000    120.000
      46     63.000    120.000
      47     35.000    120.000
      48     70.000    120.000
      49     63.000    114.000
      50     63.000    114.000
      51     40.000    109.500
      52     37.500    110.700
      53     37.500    110.700
      54     37.500    110.700
      55     37.500    110.700
      56     37.500    110.700
      57     37.500    110.700
      58     70.000    120.000
      59     70.000    120.000
      60     35.000    120.000
      61     63.000    120.000
      62     35.000    120.000
      63     63.000    120.000
      64     35.000    120.000
      65     63.000    120.000
      66     35.000    120.000
      67     70.000    120.000
      68     75.000    111.000
      69     50.000    109.500
      70     35.000    109.500
      71     35.000    109.500
      72     35.000    114.300
      73     37.500    117.200
      74     37.500    117.200
      75     37.500    117.200
      76     37.500    117.200
      77     63.000    120.000
      78     35.000    109.500
      79     37.500    110.700
      80     70.000    120.000
      81     63.000    114.000
      82     33.000    107.800
      83     35.000    120.000
      84     35.000    109.500
      85     50.000     90.000
      86     37.500    117.200
      87     63.000    120.000
      88     35.000    114.300
      89     33.000    107.800
      90     33.000    107.800
      91     33.000    107.800
      92     37.500    110.700
      93     63.000    120.000
      94     70.000    120.000
      95     58.350    112.700
      96     63.000    120.000
      97     35.000    120.000
      98     33.000    107.800
      99     35.000    109.500
     100     70.000    120.000
     101     35.000    120.000
     102     37.500    117.200
     103     35.000    120.000
     104     58.350    112.700
     105     33.000    107.800
     106     63.000    114.000
     107     63.000    120.000
     108     37.500    110.700
     109     43.600    106.400
     110     33.000    107.800
     111     35.000    109.500
     112     35.000    120.000
     113     35.000    109.500
     114     35.000    120.000
     115     35.000    120.000
     116     60.000     90.000
     117     37.500    117.200
     118     63.000    120.000
     119     50.000     90.000
     120     33.000    107.800
     121     35.000    120.000
     122     33.000    107.800
     123     63.000    120.000
     124     63.000    120.000
     125     35.000    120.000
     126     37.500    117.200
     127     35.000    120.000
     128     63.000    120.000
     129     33.000    107.800
     130     35.000    120.000
     131     63.000    120.000
     132     63.000    120.000
     133     35.000    120.000
     134     63.000    120.000
     135     35.000    120.000
     136     35.000    120.000
     137     35.000    109.500
     138     37.500    110.700
     139     35.000    116.000
     140     35.000    120.000
     141     35.000    120.000
     142     70.000    120.000

Dihedral Coeffs  

       1     -0.356     -0.174      0.492      0.000 
       2      8.000      0.000      0.000      0.000 
       3      0.416     -0.128      0.695      0.000 
       4     -7.582      3.431      3.198      0.000 
       5      0.000      7.250      0.000      0.000 
       6      0.000      7.250      0.000      0.000 
       7      0.000      7.250      0.000      0.000 
       8      0.000      0.000      0.000      0.000 
       9      0.000      0.000      0.000      0.000 
      10      0.000      7.250      0.000      0.000 
      11      0.000      7.250      0.000      0.000 
      12      0.000      7.250      0.000      0.000 
      13      0.000      2.030      0.000      0.000 
      14      4.319      0.000      0.000      0.000 
      15      0.650     -0.250      0.670      0.000 
      16      0.000      3.000      0.000      0.000 
      17      0.000      7.250      0.000      0.000 
      18      0.000      7.250      0.000      0.000 
      19      0.000      7.250      0.000      0.000 
      20      0.000      0.000      0.000      0.000 
      21      0.000      0.000      0.462      0.000 
      22      0.000      0.000      0.462      0.000 
      23      0.000      0.000      0.000      0.000 
      24      0.000      7.250      0.000      0.000 
      25      0.000      7.250      0.000      0.000 
      26      0.000      7.250      0.000      0.000 
      27      0.000      3.000      0.000      0.000 
      28      0.650     -0.250      0.670      0.000 
      29      0.000      0.000      0.468      0.000 
      30      0.000      0.000      0.000      0.000 
      31      0.000      0.000      0.000      0.000 
      32      0.000      7.250      0.000      0.000 
      33      0.000      7.250      0.000      0.000 
      34      0.000      7.250      0.000      0.000 
      35      0.000      7.250      0.000      0.000 
      36      0.000      0.000      0.468      0.000 
      37      0.000      7.250      0.000      0.000 
      38      0.000      7.250      0.000      0.000 
      39      0.000      0.000      0.760      0.000 
      40      0.000      0.000      0.000      0.000 
      41      0.000      7.250      0.000      0.000 
      42      0.000      0.000      0.300      0.000 
      43      0.000      0.000      0.462      0.000 
      44      0.000      7.250      0.000      0.000 
      45      0.000      7.250      0.000      0.000 
      46      0.000      7.250      0.000      0.000 
      47      0.000      7.250      0.000      0.000 
      48      0.000      0.000      0.462      0.000 
      49      0.000      0.000      0.468      0.000 
      50      0.000      0.000      0.300      0.000 
      51      0.000      7.250      0.000      0.000 
      52      0.000      7.250      0.000      0.000 
      53      0.000      7.250      0.000      0.000 
      54      0.000      0.000      0.300      0.000 
      55      0.000      0.000      0.000      0.000 
      56      0.000      0.000      0.000      0.000 
      57      0.000      7.250      0.000      0.000 
      58      0.000      0.000      0.468      0.000 
      59      0.000      7.250      0.000      0.000 
      60      0.000      7.250      0.000      0.000 
      61      0.000      0.000      0.000      0.000 
      62      0.000      0.000      0.760      0.000 
      63      0.000      0.000      0.000      0.000 
      64      0.000      0.000      0.000      0.000 
      65      0.000      3.000      0.000      0.000 
      66      0.000      0.000      0.000      0.000 
      67     -0.550      0.000      0.000      0.000 
      68      0.000      7.250      0.000      0.000 
      69      0.000      0.000      0.300      0.000 
      70      0.000      7.250      0.000      0.000 
      71      0.000      7.250      0.000      0.000 
      72      0.000      7.250      0.000      0.000 
      73      0.000      7.250      0.000      0.000 
      74      0.000      7.250      0.000      0.000 
      75      0.000      0.000      0.462      0.000 
      76      0.000      7.250      0.000      0.000 
      77     -7.582      3.431      3.198      0.000 
      78      0.000      7.250      0.000      0.000 
      79      0.000      7.250      0.000      0.000 
      80      0.000      0.000      0.300      0.000 
      81      0.000      2.030      0.000      0.000 
      82      0.000      0.000      0.462      0.000 
      83      0.000      0.000      0.462      0.000 
      84      0.000      7.250      0.000      0.000 
      85      0.000      7.250      0.000      0.000 
      86      0.000      7.250      0.000      0.000 
      87      0.000      0.000      0.468      0.000 
      88      0.000      0.000      0.300      0.000 
      89      0.000      7.250      0.000      0.000 
      90      0.000      7.250      0.000      0.000 
      91      0.000      0.000      0.000      0.000 
      92      0.000      0.000      0.000      0.000 
      93      0.000      7.250      0.000      0.000 
      94      0.000      0.000      0.760      0.000 
      95      0.000      7.250      0.000      0.000 
      96      0.000      7.250      0.000      0.000 
      97      0.000      0.000      0.000      0.000 
      98      0.000      7.250      0.000      0.000 
      99      0.000      0.000      0.300      0.000 
     100      0.000      7.250      0.000      0.000 
     101      0.000      7.250      0.000      0.000 
     102      0.000      7.250      0.000      0.000 
     103      0.000      7.250      0.000      0.000 
     104      0.000      0.000      0.560      0.000 
     105      0.000      7.250      0.000      0.000 
     106      0.000      7.250      0.000      0.000 
     107      0.000      7.250      0.000      0.000 
     108      0.000      0.000      0.000      0.000 
     109      0.000      7.250      0.000      0.000 
     110      0.000      0.000      0.000      0.000 
     111      0.000      7.250      0.000      0.000 
     112      0.000      0.000      0.462      0.000 
     113      0.000      0.000      0.300      0.000 
     114      0.000      7.250      0.000      0.000 
     115      0.000      0.000      0.300      0.000 
     116      0.000      0.000      0.000      0.000 
     117      0.000      0.000      0.000      0.000 
     118      2.392     -0.674      0.550      0.000 
     119      0.000      0.000      0.400      0.000 
     120      0.000      0.000      0.468      0.000 
     121      0.000      7.250      0.000      0.000 
     122      0.000      7.250      0.000      0.000 
     123      0.000      7.250      0.000      0.000 
     124      0.000      0.000      0.462      0.000 
     125      0.000      7.250      0.000      0.000 
     126      0.000      7.250      0.000      0.000 
     127      0.000      0.000      0.300      0.000 
     128      0.000      7.250      0.000      0.000 
     129      0.000      7.250      0.000      0.000 
     130      0.000      0.000      0.000      0.000 
     131      0.000      0.000      0.300      0.000 
     132      0.000      2.030      0.000      0.000 
     133      0.000      7.250      0.000      0.000 
     134     -0.190     -0.417      0.418      0.000 
     135      0.000      7.250      0.000      0.000 
     136      0.000      0.000      0.468      0.000 
     137      0.000      2.030      0.000      0.000 
     138      0.000      3.000      0.000      0.000 
     139      0.000      0.000      0.400      0.000 
     140      0.000      7.250      0.000      0.000 
     141      0.000      7.250      0.000      0.000 
     142      0.000      0.000      0.300      0.000 
     143      0.000      7.250      0.000      0.000 
     144      0.000      0.000      0.000      0.000 
     145      0.000      2.030      0.000      0.000 
     146      0.000      7.250      0.000      0.000 
     147      0.000      0.000      0.000      0.000 
     148      0.000      7.250      0.000      0.000 
     149      0.000      0.000      0.468      0.000 
     150      0.000      7.250      0.000      0.000 
     151      0.000      7.250      0.000      0.000 
     152      0.000      7.250      0.000      0.000 
     153      0.000      7.250      0.000      0.000 
     154      0.000      0.000      0.300      0.000 
     155      0.000      7.250      0.000      0.000 
     156      0.000      0.000      0.462      0.000 
     157      0.000      0.000      0.300      0.000 
     158      0.000      7.250      0.000      0.000 
     159      0.000      0.000      0.000      0.000 
     160      0.000      0.000      0.300      0.000 
     161     -0.356     -0.174      0.492      0.000 
     162      0.000      7.250      0.000      0.000 
     163      0.000      0.000      0.000      0.000 
     164      0.000      7.250      0.000      0.000 
     165      0.000      7.250      0.000      0.000 
     166      0.000      7.250      0.000      0.000 
     167      0.000      0.000      0.462      0.000 
     168      0.000      7.250      0.000      0.000 
     169      0.000      0.000      0.000      0.000 
     170      0.000      7.250      0.000      0.000 
     171      0.000      0.000      0.000      0.000 
     172      0.000      7.250      0.000      0.000 
     173      0.000      0.000      0.760      0.000 
     174      0.000      7.250      0.000      0.000 
     175      0.000      7.250      0.000      0.000 
     176      0.000      0.000      0.300      0.000 
     177      0.000      7.250      0.000      0.000 
     178      0.000      7.250      0.000      0.000 
     179      0.000      0.000      0.000      0.000 
     180      0.000      0.000      0.462      0.000 
     181     -1.013     -0.709      0.473      0.000 
     182      0.000      0.000      0.300      0.000 
     183      0.000      2.030      0.000      0.000 
     184      0.000      7.250      0.000      0.000 
     185      0.000      0.000      0.352      0.000 
     186      0.000      0.000      0.000      0.000 
     187      0.000      0.000      0.000      0.000 
     188      0.000      7.250      0.000      0.000 
     189      0.000      7.250      0.000      0.000 
     190      0.000      7.250      0.000      0.000 
     191      0.000      0.000      0.560      0.000 
     192      0.000      7.250      0.000      0.000 
     193      0.000      0.000      0.000      0.000 
     194      0.000      0.000      0.000      0.000 
     195      0.000      7.250      0.000      0.000 
     196      0.000      7.250      0.000      0.000 
     197      1.711     -0.500      0.663      0.000 
     198      0.000      0.000      0.000      0.000 
     199      0.000      0.000      0.300      0.000 
     200      0.000      7.250      0.000      0.000 

Improper Coeffs 

       1      0.000      -1       2 
       2      0.000      -1       2 
       3      0.000      -1       2 
       4      0.000      -1       2 
       5      0.000      -1       2 
       6      2.500      -1       2 
       7      2.500      -1       2 
       8      2.500      -1       2 
       9      2.500      -1       2 
      10      2.500      -1       2 
      11      2.500      -1       2 
      12      0.000      -1       2 
      13      0.000      -1       2 
      14      2.500      -1       2 
      15      2.500      -1       2 
      16      2.500      -1       2 
      17      2.500      -1       2 
      18      2.500      -1       2 
      19      2.500      -1       2 
      20      0.000      -1       2 
      21      0.000      -1       2 
      22      0.000      -1       2 
      23      2.500      -1       2 
      24      2.500      -1       2 
      25      2.500      -1       2 
      26      2.500      -1       2 
      27      2.500      -1       2 
      28      2.500      -1       2 
      29      0.000      -1       2 
      30      0.000      -1       2 
      31      0.000      -1       2 
      32      0.000      -1       2 
      33      0.000      -1       2 
      34      0.000      -1       2 
      35      2.500      -1       2 
      36      2.500      -1       2 
      37      2.500      -1       2 
      38      2.500      -1       2 
      39      2.500      -1       2 
      40      2.500      -1       2 
      41      0.000      -1       2 
      42      0.000      -1       2 
      43      0.000      -1       2 
      44      0.000      -1       2 
      45      0.000      -1       2 
      46      0.000      -1       2 
      47      0.000      -1       2 
      48      0.000      -1       2 

Atoms 

     1      1      1 0.43580000    1.000  1.00000  0.00000
     2      1      2 -0.57960000    0.019  1.00000  0.00000
     3      1      3 0.06400000   -0.337  1.00000  1.39451
     4      1      4 0.00900000    0.742  0.22001  2.17345
     5      1      5 0.00530000   -1.695  0.31031  1.57712
     6      1      6 0.11090000   -0.373  2.04732  1.71341
     7      1      7 -0.81430000    2.077  0.62828  1.70205
     8      1      8 0.10300000    0.571 -0.84534  1.98061
     9      1      9 0.10300000    0.647  0.39097  3.25235
    10      1     10 0.14440000    3.017 -0.38925  1.47031
    11      1     11 0.41800000    2.493  1.34649  2.29702
    12      1     12 -0.16860000    4.035 -0.14914  0.54261
    13      1     13 -0.16860000    3.038 -1.59978  2.16582
    14      1     14 0.15250000    4.079  0.80679  0.02639
    15      1     15 -0.12790000    4.961 -1.14641  0.20552
    16      1     16 0.15250000    2.335 -1.80021  2.96770
    17      1     17 -0.12790000    3.935 -2.61146  1.80957
    18      1     18 0.15640000    5.705 -0.91910 -0.55396
    19      1     19 -0.08030000    4.921 -2.39635  0.83160
    20      1     20 0.15640000    3.855 -3.57751  2.30548
    21      1     21 -0.08340000    5.814 -3.56576  0.47600
    22      1     22 -0.12700000    7.003 -3.32840 -0.42468
    23      1     23 0.10400000    5.187 -4.33055 -0.00343
    24      1     24 0.10400000    6.173 -4.01616  1.41158
    25      1     25 -0.10090000    8.300 -3.31297  0.10450
    26      1     26 -0.10090000    6.840 -3.17438 -1.80793
    27      1     27 0.15160000    8.458 -3.41304  1.17574
    28      1     28 -0.20560000    9.407 -3.17035 -0.73777
    29      1     29 0.15160000    5.844 -3.16565 -2.24420
    30      1     30 -0.20560000    7.953 -3.02885 -2.64288
    31      1     31 0.14900000   10.402 -3.16040 -0.30046
    32      1     32 0.20050000    9.243 -3.04395 -2.11789
    33      1     33 0.14900000    7.797 -2.90448 -3.71104
    34      1     34 -0.95170000   10.334 -2.71301 -2.93117
    35      1     35 0.41860000   11.220 -3.06105 -2.57707
    36      1     36 0.41860000   10.194 -2.94856 -3.90913
    37      1     37 -0.29190000   -2.738  1.09745  0.99368
    38      1     38 0.09730000   -1.653 -0.67119  1.08572
    39      1     39 0.09730000   -1.899  0.19135  2.64711
    40      1     40 0.13280000   -3.925  0.44264  0.80118
    41      1     41 -0.20470000   -4.793  1.03160 -0.11644
    42      1     42 -0.20470000   -4.313 -0.73293  1.44041
    43      1     43 0.15890000   -4.497  1.95018 -0.61831
    44      1     44 -0.10590000   -6.038  0.45456 -0.39982
    45      1     45 0.15890000   -3.674 -1.22866  2.16323
    46      1     46 -0.10590000   -5.556 -1.30872  1.16089
    47      1     47 0.15370000   -6.670  0.95867 -1.12484
    48      1     48 -0.10900000   -6.444 -0.73123  0.23215
    49      1     49 0.15370000   -5.828 -2.22466  1.68397
    50      1     50 0.05500000   -7.804 -1.41424 -0.04987
    51      1     51 -0.22990000   -7.490 -2.64162 -0.94306
    52      1     52 -0.22980000   -8.787 -0.52751 -0.85741
    53      1     53 -0.10210000   -8.530 -1.77683  1.27041
    54      1     54 0.08660000   -8.405 -3.15213 -1.26614
    55      1     55 0.08660000   -6.864 -3.37926 -0.42569
    56      1     56 0.08660000   -6.953 -2.34232 -1.85110
    57      1     57 0.08680000   -9.752 -1.03191 -0.99393
    58      1     58 0.08680000   -8.400 -0.30375 -1.85958
    59      1     59 0.08680000   -8.988  0.42749 -0.35775
    60      1     60 -0.10640000   -9.006 -3.06656  1.55268
    61      1     61 -0.10640000   -8.730 -0.78182  2.24770
    62      1     62 0.15600000   -8.884 -3.88121  0.84329
    63      1     63 -0.20380000   -9.656 -3.35434  2.76154
    64      1     64 0.15600000   -8.377  0.23437  2.07567
    65      1     65 -0.20380000   -9.377 -1.06913  3.45102
    66      1     66 0.15860000  -10.001 -4.37000  2.92231
    67      1     67 0.12700000   -9.843 -2.35505  3.71382
    68      1     68 0.15860000   -9.518 -0.28012  4.18606
    69      1     69 -0.30490000  -10.414 -2.52140  4.94400
    70      1     70 0.01430000  -11.281 -3.64562  5.09603
    71      1     71 -0.04200000  -11.938 -3.55293  6.43719
    72      1     72 0.10570000  -10.712 -4.57916  5.02176
    73      1     73 0.10570000  -12.057 -3.62023  4.32174
    74      1     74 0.16880000  -12.096 -2.53945  6.78122
    75      1     75 -0.33710000  -11.525 -4.54669  7.38570
    76      1     76 -0.08250000  -12.880 -4.62732  6.91210
    77      1     77 0.13810000  -13.130 -5.44050  6.24293
    78      1     78 0.13810000  -13.665 -4.35089  7.60610

Bonds 

     1      1      2      1
     2      2      3      2
     3      3      4      3
     4      4      5      3
     5      5      6      3
     6      6      7      4
     7      7      8      4
     8      8      9      4
     9      9     10      7
    10     10     11      7
    11     11     12     10
    12     12     13     10
    13     13     14     12
    14     14     15     12
    15     15     16     13
    16     16     17     13
    17     17     18     15
    18     18     19     15
    19     19     20     17
    20     20     21     19
    21     21     22     21
    22     22     23     21
    23     23     24     21
    24     24     25     22
    25     25     26     22
    26     26     27     25
    27     27     28     25
    28     28     29     26
    29     29     30     26
    30     30     31     28
    31     31     32     28
    32     32     33     30
    33     33     34     32
    34     34     35     34
    35     35     36     34
    36     36     37      5
    37     37     38      5
    38     38     39      5